[Molden Format]
made by pyscf v[2.4.0]
[Atoms] (AU)
C   1   6   -16.53510358994429    -0.00003517504713     1.32285602167745
C   2   6   -16.53510358994429    -0.00003517504713    -1.32276055271364
H   3   1   -16.53510358994429     1.75184736046166     2.27548646304430
H   4   1   -16.53510358994429    -1.75032346767737     2.27877736439845
H   5   1   -16.53510358994429     1.75031057281620    -2.27791179424435
H   6   1   -16.53510358994429    -1.75176411550624    -2.27644750216221
C   7   6   -11.81078827853164    -0.00003517504713     1.32285602167745
C   8   6   -11.81078827853164    -0.00003517504713    -1.32276055271364
H   9   1   -11.81078827853164     1.75184736046166     2.27548646304430
H   10   1   -11.81078827853164    -1.75032346767737     2.27877736439845
H   11   1   -11.81078827853164     1.75031057281620    -2.27791179424435
H   12   1   -11.81078827853164    -1.75176411550624    -2.27644750216221
C   13   6    -7.08647296711898    -0.00003517504713     1.32285602167745
C   14   6    -7.08647296711898    -0.00003517504713    -1.32276055271364
H   15   1    -7.08647296711898     1.75184736046166     2.27548646304430
H   16   1    -7.08647296711898    -1.75032346767737     2.27877736439845
H   17   1    -7.08647296711898     1.75031057281620    -2.27791179424435
H   18   1    -7.08647296711898    -1.75176411550624    -2.27644750216221
C   19   6    -2.36215765570633    -0.00003517504713     1.32285602167745
C   20   6    -2.36215765570633    -0.00003517504713    -1.32276055271364
H   21   1    -2.36215765570633     1.75184736046166     2.27548646304430
H   22   1    -2.36215765570633    -1.75032346767737     2.27877736439845
H   23   1    -2.36215765570633     1.75031057281620    -2.27791179424435
H   24   1    -2.36215765570633    -1.75176411550624    -2.27644750216221
C   25   6     2.36215765570633    -0.00003517504713     1.32285602167745
C   26   6     2.36215765570633    -0.00003517504713    -1.32276055271364
H   27   1     2.36215765570633     1.75184736046166     2.27548646304430
H   28   1     2.36215765570633    -1.75032346767737     2.27877736439845
H   29   1     2.36215765570633     1.75031057281620    -2.27791179424435
H   30   1     2.36215765570633    -1.75176411550624    -2.27644750216221
C   31   6     7.08647296711898    -0.00003517504713     1.32285602167745
C   32   6     7.08647296711898    -0.00003517504713    -1.32276055271364
H   33   1     7.08647296711898     1.75184736046166     2.27548646304430
H   34   1     7.08647296711898    -1.75032346767737     2.27877736439845
H   35   1     7.08647296711898     1.75031057281620    -2.27791179424435
H   36   1     7.08647296711898    -1.75176411550624    -2.27644750216221
C   37   6    11.81078827853164    -0.00003517504713     1.32285602167745
C   38   6    11.81078827853164    -0.00003517504713    -1.32276055271364
H   39   1    11.81078827853164     1.75184736046166     2.27548646304430
H   40   1    11.81078827853164    -1.75032346767737     2.27877736439845
H   41   1    11.81078827853164     1.75031057281620    -2.27791179424435
H   42   1    11.81078827853164    -1.75176411550624    -2.27644750216221
C   43   6    16.53510358994429    -0.00003517504713     1.32285602167745
C   44   6    16.53510358994429    -0.00003517504713    -1.32276055271364
H   45   1    16.53510358994429     1.75184736046166     2.27548646304430
H   46   1    16.53510358994429    -1.75032346767737     2.27877736439845
H   47   1    16.53510358994429     1.75031057281620    -2.27791179424435
H   48   1    16.53510358994429    -1.75176411550624    -2.27644750216221
[GTO]
1 0
 s    3 1.00
               172.256   0.061766907377115
               25.9109    0.35879404285247
               5.53335    0.70071308368949
 s    2 1.00
               3.66498   -0.39589516211925
              0.770545     1.2158343556811
 s    1 1.00
              0.195857                   1
 p    2 1.00
               3.66498    0.23645994661946
              0.770545    0.86061880571636
 p    1 1.00
              0.195857                   1

2 0
 s    3 1.00
               172.256   0.061766907377115
               25.9109    0.35879404285247
               5.53335    0.70071308368949
 s    2 1.00
               3.66498   -0.39589516211925
              0.770545     1.2158343556811
 s    1 1.00
              0.195857                   1
 p    2 1.00
               3.66498    0.23645994661946
              0.770545    0.86061880571636
 p    1 1.00
              0.195857                   1

3 0
 s    2 1.00
              5.447178     0.1562849806701
              0.824547    0.90469088810453
 s    1 1.00
              0.183192                   1

4 0
 s    2 1.00
              5.447178     0.1562849806701
              0.824547    0.90469088810453
 s    1 1.00
              0.183192                   1

5 0
 s    2 1.00
              5.447178     0.1562849806701
              0.824547    0.90469088810453
 s    1 1.00
              0.183192                   1

6 0
 s    2 1.00
              5.447178     0.1562849806701
              0.824547    0.90469088810453
 s    1 1.00
              0.183192                   1

7 0
 s    3 1.00
               172.256   0.061766907377115
               25.9109    0.35879404285247
               5.53335    0.70071308368949
 s    2 1.00
               3.66498   -0.39589516211925
              0.770545     1.2158343556811
 s    1 1.00
              0.195857                   1
 p    2 1.00
               3.66498    0.23645994661946
              0.770545    0.86061880571636
 p    1 1.00
              0.195857                   1

8 0
 s    3 1.00
               172.256   0.061766907377115
               25.9109    0.35879404285247
               5.53335    0.70071308368949
 s    2 1.00
               3.66498   -0.39589516211925
              0.770545     1.2158343556811
 s    1 1.00
              0.195857                   1
 p    2 1.00
               3.66498    0.23645994661946
              0.770545    0.86061880571636
 p    1 1.00
              0.195857                   1

9 0
 s    2 1.00
              5.447178     0.1562849806701
              0.824547    0.90469088810453
 s    1 1.00
              0.183192                   1

10 0
 s    2 1.00
              5.447178     0.1562849806701
              0.824547    0.90469088810453
 s    1 1.00
              0.183192                   1

11 0
 s    2 1.00
              5.447178     0.1562849806701
              0.824547    0.90469088810453
 s    1 1.00
              0.183192                   1

12 0
 s    2 1.00
              5.447178     0.1562849806701
              0.824547    0.90469088810453
 s    1 1.00
              0.183192                   1

13 0
 s    3 1.00
               172.256   0.061766907377115
               25.9109    0.35879404285247
               5.53335    0.70071308368949
 s    2 1.00
               3.66498   -0.39589516211925
              0.770545     1.2158343556811
 s    1 1.00
              0.195857                   1
 p    2 1.00
               3.66498    0.23645994661946
              0.770545    0.86061880571636
 p    1 1.00
              0.195857                   1

14 0
 s    3 1.00
               172.256   0.061766907377115
               25.9109    0.35879404285247
               5.53335    0.70071308368949
 s    2 1.00
               3.66498   -0.39589516211925
              0.770545     1.2158343556811
 s    1 1.00
              0.195857                   1
 p    2 1.00
               3.66498    0.23645994661946
              0.770545    0.86061880571636
 p    1 1.00
              0.195857                   1

15 0
 s    2 1.00
              5.447178     0.1562849806701
              0.824547    0.90469088810453
 s    1 1.00
              0.183192                   1

16 0
 s    2 1.00
              5.447178     0.1562849806701
              0.824547    0.90469088810453
 s    1 1.00
              0.183192                   1

17 0
 s    2 1.00
              5.447178     0.1562849806701
              0.824547    0.90469088810453
 s    1 1.00
              0.183192                   1

18 0
 s    2 1.00
              5.447178     0.1562849806701
              0.824547    0.90469088810453
 s    1 1.00
              0.183192                   1

19 0
 s    3 1.00
               172.256   0.061766907377115
               25.9109    0.35879404285247
               5.53335    0.70071308368949
 s    2 1.00
               3.66498   -0.39589516211925
              0.770545     1.2158343556811
 s    1 1.00
              0.195857                   1
 p    2 1.00
               3.66498    0.23645994661946
              0.770545    0.86061880571636
 p    1 1.00
              0.195857                   1

20 0
 s    3 1.00
               172.256   0.061766907377115
               25.9109    0.35879404285247
               5.53335    0.70071308368949
 s    2 1.00
               3.66498   -0.39589516211925
              0.770545     1.2158343556811
 s    1 1.00
              0.195857                   1
 p    2 1.00
               3.66498    0.23645994661946
              0.770545    0.86061880571636
 p    1 1.00
              0.195857                   1

21 0
 s    2 1.00
              5.447178     0.1562849806701
              0.824547    0.90469088810453
 s    1 1.00
              0.183192                   1

22 0
 s    2 1.00
              5.447178     0.1562849806701
              0.824547    0.90469088810453
 s    1 1.00
              0.183192                   1

23 0
 s    2 1.00
              5.447178     0.1562849806701
              0.824547    0.90469088810453
 s    1 1.00
              0.183192                   1

24 0
 s    2 1.00
              5.447178     0.1562849806701
              0.824547    0.90469088810453
 s    1 1.00
              0.183192                   1

25 0
 s    3 1.00
               172.256   0.061766907377115
               25.9109    0.35879404285247
               5.53335    0.70071308368949
 s    2 1.00
               3.66498   -0.39589516211925
              0.770545     1.2158343556811
 s    1 1.00
              0.195857                   1
 p    2 1.00
               3.66498    0.23645994661946
              0.770545    0.86061880571636
 p    1 1.00
              0.195857                   1

26 0
 s    3 1.00
               172.256   0.061766907377115
               25.9109    0.35879404285247
               5.53335    0.70071308368949
 s    2 1.00
               3.66498   -0.39589516211925
              0.770545     1.2158343556811
 s    1 1.00
              0.195857                   1
 p    2 1.00
               3.66498    0.23645994661946
              0.770545    0.86061880571636
 p    1 1.00
              0.195857                   1

27 0
 s    2 1.00
              5.447178     0.1562849806701
              0.824547    0.90469088810453
 s    1 1.00
              0.183192                   1

28 0
 s    2 1.00
              5.447178     0.1562849806701
              0.824547    0.90469088810453
 s    1 1.00
              0.183192                   1

29 0
 s    2 1.00
              5.447178     0.1562849806701
              0.824547    0.90469088810453
 s    1 1.00
              0.183192                   1

30 0
 s    2 1.00
              5.447178     0.1562849806701
              0.824547    0.90469088810453
 s    1 1.00
              0.183192                   1

31 0
 s    3 1.00
               172.256   0.061766907377115
               25.9109    0.35879404285247
               5.53335    0.70071308368949
 s    2 1.00
               3.66498   -0.39589516211925
              0.770545     1.2158343556811
 s    1 1.00
              0.195857                   1
 p    2 1.00
               3.66498    0.23645994661946
              0.770545    0.86061880571636
 p    1 1.00
              0.195857                   1

32 0
 s    3 1.00
               172.256   0.061766907377115
               25.9109    0.35879404285247
               5.53335    0.70071308368949
 s    2 1.00
               3.66498   -0.39589516211925
              0.770545     1.2158343556811
 s    1 1.00
              0.195857                   1
 p    2 1.00
               3.66498    0.23645994661946
              0.770545    0.86061880571636
 p    1 1.00
              0.195857                   1

33 0
 s    2 1.00
              5.447178     0.1562849806701
              0.824547    0.90469088810453
 s    1 1.00
              0.183192                   1

34 0
 s    2 1.00
              5.447178     0.1562849806701
              0.824547    0.90469088810453
 s    1 1.00
              0.183192                   1

35 0
 s    2 1.00
              5.447178     0.1562849806701
              0.824547    0.90469088810453
 s    1 1.00
              0.183192                   1

36 0
 s    2 1.00
              5.447178     0.1562849806701
              0.824547    0.90469088810453
 s    1 1.00
              0.183192                   1

37 0
 s    3 1.00
               172.256   0.061766907377115
               25.9109    0.35879404285247
               5.53335    0.70071308368949
 s    2 1.00
               3.66498   -0.39589516211925
              0.770545     1.2158343556811
 s    1 1.00
              0.195857                   1
 p    2 1.00
               3.66498    0.23645994661946
              0.770545    0.86061880571636
 p    1 1.00
              0.195857                   1

38 0
 s    3 1.00
               172.256   0.061766907377115
               25.9109    0.35879404285247
               5.53335    0.70071308368949
 s    2 1.00
               3.66498   -0.39589516211925
              0.770545     1.2158343556811
 s    1 1.00
              0.195857                   1
 p    2 1.00
               3.66498    0.23645994661946
              0.770545    0.86061880571636
 p    1 1.00
              0.195857                   1

39 0
 s    2 1.00
              5.447178     0.1562849806701
              0.824547    0.90469088810453
 s    1 1.00
              0.183192                   1

40 0
 s    2 1.00
              5.447178     0.1562849806701
              0.824547    0.90469088810453
 s    1 1.00
              0.183192                   1

41 0
 s    2 1.00
              5.447178     0.1562849806701
              0.824547    0.90469088810453
 s    1 1.00
              0.183192                   1

42 0
 s    2 1.00
              5.447178     0.1562849806701
              0.824547    0.90469088810453
 s    1 1.00
              0.183192                   1

43 0
 s    3 1.00
               172.256   0.061766907377115
               25.9109    0.35879404285247
               5.53335    0.70071308368949
 s    2 1.00
               3.66498   -0.39589516211925
              0.770545     1.2158343556811
 s    1 1.00
              0.195857                   1
 p    2 1.00
               3.66498    0.23645994661946
              0.770545    0.86061880571636
 p    1 1.00
              0.195857                   1

44 0
 s    3 1.00
               172.256   0.061766907377115
               25.9109    0.35879404285247
               5.53335    0.70071308368949
 s    2 1.00
               3.66498   -0.39589516211925
              0.770545     1.2158343556811
 s    1 1.00
              0.195857                   1
 p    2 1.00
               3.66498    0.23645994661946
              0.770545    0.86061880571636
 p    1 1.00
              0.195857                   1

45 0
 s    2 1.00
              5.447178     0.1562849806701
              0.824547    0.90469088810453
 s    1 1.00
              0.183192                   1

46 0
 s    2 1.00
              5.447178     0.1562849806701
              0.824547    0.90469088810453
 s    1 1.00
              0.183192                   1

47 0
 s    2 1.00
              5.447178     0.1562849806701
              0.824547    0.90469088810453
 s    1 1.00
              0.183192                   1

48 0
 s    2 1.00
              5.447178     0.1562849806701
              0.824547    0.90469088810453
 s    1 1.00
              0.183192                   1

[5d]
[7f]
[9g]

[MO]
 Sym= A
 Ene=               0
 Spin= Alpha
 Occup=    1.00000
   1    -0.00079763111911756
   2    0.0051503901400533
   3    -0.010855819926988
   4       0.3259336771465
   5    -4.4873591475503e-07
   6    -0.0029264262517418
   7      0.39936335906668
   8    8.6837167911089e-06
   9    0.00026775519587783
  10    -0.00079746324542783
  11    0.0051504625461777
  12    -0.010857935495279
  13      0.32593204161828
  14    -1.2750049113439e-06
  15    0.0029262052875059
  16      0.39936145785821
  17    -7.611586786798e-06
  18    -0.00027011938436698
  19    0.0021305126933263
  20    0.0090770921064265
  21    0.0021319649920038
  22    0.0090795762340545
  23    0.0021324882846082
  24     0.009080487333122
  25     0.002129876446013
  26    0.0090745122322364
  27    0.0089812027828629
  28    -0.0062189492432076
  29    -0.038268858271202
  30     0.038410713659524
  31    1.8104554326739e-06
  32    0.0024224679680047
  33     0.051315740557677
  34    -3.3766127062557e-06
  35    0.0030890851486881
  36    0.0089811168430808
  37    -0.006219094332139
  38    -0.038268019922365
  39     0.038410595299848
  40    1.4993281088667e-08
  41    -0.0024226274035793
  42      0.05131545699676
  43    3.8995460896593e-06
  44    -0.0030885843787195
  45    -0.0026465472628075
  46    -0.0078751547727102
  47    -0.0026471241392233
  48    -0.0078767518303148
  49    -0.0026476824874904
  50    -0.007877488239053
  51    -0.0026458761009911
  52    -0.0078738139417254
  53    0.0010093477659851
  54    0.00030033241612569
  55    -0.0059770149262222
  56    0.0027496289489211
  57    3.1067325295316e-09
  58    -5.6715879136747e-05
  59    0.0064991616053793
  60    -6.8463423047226e-07
  61    0.00018281125030035
  62    0.0010093409884517
  63    0.00030032381158198
  64    -0.0059768863543326
  65     0.002749627807279
  66    3.4743341290973e-08
  67    5.6710078381215e-05
  68    0.0064991436599631
  69    4.7499088373264e-07
  70    -0.00018272707725766
  71    0.00027181629616684
  72    -0.00010987253343172
  73    0.00027145153093478
  74    -0.00011082477089835
  75    0.00027154011766179
  76    -0.00011064503044133
  77    0.00027171188454947
  78    -0.00011003408001913
  79    0.00013055332771245
  80    0.00027120292943231
  81    -0.0010086971562242
  82    0.0001088652807884
  83    7.8538556713637e-10
  84    -4.7069757766681e-05
  85    0.0011279558659525
  86    -3.0235245047862e-07
  87    -1.1680760923407e-06
  88    0.00013055198208353
  89    0.00027119987545547
  90    -0.0010086541032707
  91    0.00010886520573985
  92    -1.4279292007528e-08
  93    4.7070320213009e-05
  94    0.0011279567009572
  95    2.0853839405967e-07
  96    1.2045271767599e-06
  97    0.0001086132278025
  98    -1.7044746108472e-05
  99    0.00010848329400963
 100    -1.7315486172959e-05
 101    0.00010851423965665
 102    -1.7254127593837e-05
 103    0.0001085782846444
 104    -1.7098476605643e-05
 105    2.2380936747511e-05
 106    9.3210700652568e-05
 107    -0.00023075601447046
 108    -2.7412957581743e-05
 109    -3.7179045333157e-09
 110    -1.6138049849206e-05
 111    0.00024591757130593
 112    -6.7241639508888e-08
 113    -2.0089302497082e-06
 114    2.238072939623e-05
 115    9.321064379587e-05
 116    -0.00023074745682461
 117    -2.7413123874975e-05
 118    -2.5472230187857e-09
 119     1.61384032436e-05
 120    0.00024591920110199
 121    3.9942983513316e-08
 122    2.0176111395592e-06
 123    3.0724845487483e-05
 124    8.4138681603606e-06
 125    3.0697329810028e-05
 126    8.3387265469173e-06
 127    3.0706496830507e-05
 128    8.3579227719209e-06
 129    3.0714905321248e-05
 130    8.3960857128728e-06
 131    4.6517645933072e-06
 132    2.6794414007229e-05
 133    -5.6415680616628e-05
 134    -1.3271624513318e-05
 135    -3.9178878572995e-10
 136    -4.3048188330855e-06
 137    6.0834112781029e-05
 138    -2.207882399291e-08
 139    -1.1773126110384e-06
 140    4.6517168778019e-06
 141    2.6794438071972e-05
 142    -5.6413341430897e-05
 143    -1.3271728201194e-05
 144    -1.3165728368117e-09
 145    4.3048962204726e-06
 146    6.0834853974629e-05
 147    1.4302984478582e-08
 148    1.1799254604724e-06
 149    8.6252570753117e-06
 150    1.9570384469564e-06
 151    8.6163402624002e-06
 152    1.9361144247719e-06
 153    8.6188346188174e-06
 154    1.9414347276486e-06
 155    8.6226579715578e-06
 156    1.9521504014862e-06
 157    1.147683711473e-06
 158      7.7521005963e-06
 159    -1.5359464987867e-05
 160    -4.1895257841245e-06
 161    -1.9518054430829e-10
 162    -1.2400841228661e-06
 163    1.5785643926887e-05
 164    -5.6064518186397e-09
 165    -3.2716111666802e-07
 166    1.1476758471595e-06
 167    7.7521391375302e-06
 168    -1.535893458997e-05
 169    -4.189565027352e-06
 170    -2.9187071989241e-10
 171    1.2401009883715e-06
 172    1.5785917450106e-05
 173    3.3724771170955e-09
 174    3.2786677915105e-07
 175    2.3683011446921e-06
 176    7.7899293659195e-07
 177    2.3661603882989e-06
 178     7.73038365565e-07
 179    2.3668662876356e-06
 180    7.7459414468018e-07
 181    2.3675868433326e-06
 182    7.7755550029388e-07
 183    3.422145797778e-07
 184    2.5626741905312e-06
 185    -4.8335705931615e-06
 186    -9.048980723869e-07
 187    -5.4670247140121e-12
 188    -3.9588848252768e-07
 189    3.4551505788653e-06
 190    -2.2045718443092e-09
 191    -1.2841675444015e-07
 192    3.4221241096076e-07
 193    2.5626898028547e-06
 194    -4.8333920599104e-06
 195    -9.0490740518386e-07
 196    -1.3678788126264e-10
 197    3.958913010676e-07
 198    3.4552241008682e-06
 199    1.4172599429834e-09
 200    1.2866623332519e-07
 201    7.6909371785412e-07
 202    2.6318473091657e-07
 203    7.6828573013519e-07
 204    2.6102783864942e-07
 205    7.6851738539858e-07
 206    2.6157094850177e-07
 207    7.6886669154141e-07
 208    2.6268038432443e-07
 Sym= A
 Ene=               1
 Spin= Alpha
 Occup=    1.00000
   1    0.00055050128665421
   2    0.0026271879884407
   3    -0.012121035176872
   4     -0.48691569721324
   5    1.4401468058652e-06
   6    7.9928035462069e-05
   7     -0.49377332904575
   8    -3.4792441922915e-06
   9    0.0049120359913806
  10    -0.00055052874714109
  11     -0.00262715084615
  12     0.012121367880585
  13      0.48691692785257
  14    -2.0462685323094e-07
  15    8.0191508290512e-05
  16      0.49377463547058
  17    -1.6510701491479e-06
  18    0.0049117714469384
  19    -0.00033670158118693
  20    -0.0028519212061985
  21    -0.00033901126410112
  22    -0.0028581198567533
  23    0.0003387082622306
  24    0.0028571061978898
  25    0.00033704129373915
  26    0.0028527818916358
  27    -0.005370474998785
  28    0.0081304519775556
  29     0.035783779108404
  30    -0.035090084630885
  31    -2.0002892712727e-06
  32    0.0050396649271694
  33    -0.042783663028145
  34    5.1155090911314e-07
  35    0.0037304566978428
  36    0.0053704999566022
  37    -0.0081304870757926
  38    -0.035784032723375
  39     0.035090230928599
  40    -1.069585696918e-06
  41    0.0050392978227686
  42     0.042783809548276
  43    -5.4704885997825e-07
  44    0.0037303345409595
  45    0.0033440627957057
  46    0.0075984424874695
  47    0.0033459207575999
  48    0.0076025207131449
  49    -0.0033459928790275
  50    -0.0076023410910262
  51    -0.0033440917775179
  52    -0.0075986953948433
  53    -0.00035963300661975
  54    0.00014313762743963
  55    0.0039099079349389
  56    -0.0013975944237016
  57    -1.0084577095557e-07
  58    4.2277559079521e-05
  59    -0.0034458405857612
  60    2.0211857993489e-08
  61    -7.8832694291882e-06
  62    0.00035963797174069
  63    -0.00014313804576731
  64    -0.0039099442620909
  65    0.0013976051060487
  66    -1.3039975113443e-07
  67    4.2265144276317e-05
  68    0.0034458630246995
  69    1.6474140079152e-08
  70    -7.8790001886882e-06
  71    -0.00024916877340672
  72    4.5178141614214e-05
  73    -0.00024932717761256
  74    4.5209706168854e-05
  75    0.00024928987931079
  76    -4.5219412632763e-05
  77    0.00024921961850358
  78    -4.5138865941373e-05
  79    -3.7569338262191e-05
  80    -0.00010058053249972
  81    0.0005959768431786
  82    -2.7940940845737e-05
  83    -8.0309583578462e-09
  84    -1.7921929713519e-05
  85    -0.00049012282298285
  86    1.0470215688087e-07
  87    -6.107741097399e-05
  88    3.7569898155098e-05
  89    0.00010058194451077
  90    -0.00059598565794849
  91    2.7941092228276e-05
  92    -1.5980277465618e-08
  93    -1.7923623502744e-05
  94    0.0004901278869907
  95    -6.1764359126258e-09
  96    -6.107035727684e-05
  97    -5.6401200002521e-05
  98     1.13941597078e-05
  99    -5.635924583958e-05
 100    1.1488213811717e-05
 101    5.6384218020822e-05
 102    -1.1440925088601e-05
 103    5.6377572395874e-05
 104    -1.1437306255985e-05
 105    -5.6651405741944e-06
 106    -2.6974650016871e-05
 107    0.00011242757597798
 108    8.5923051935811e-06
 109    1.1291363267045e-09
 110    -5.1649823893042e-06
 111    -9.2922451094297e-05
 112    1.1178175898304e-08
 113    -1.192691785067e-05
 114    5.6652667156763e-06
 115    2.6975366362254e-05
 116    -0.00011242967530486
 117    -8.5926461483954e-06
 118    -3.5075248759893e-09
 119    -5.1650695976881e-06
 120    9.2923992613709e-05
 121    4.9962455798748e-09
 122    -1.192592984265e-05
 123    -1.2955874732865e-05
 124    2.6539259312999e-07
 125    -1.2954352818723e-05
 126    2.8407661181438e-07
 127    1.2955841977632e-05
 128    -2.7771924138122e-07
 129    1.2954862487798e-05
 130    -2.7071879682022e-07
 131    -1.1407156476382e-06
 132    -6.620595425359e-06
 133    2.5246346351717e-05
 134    2.7743454440815e-06
 135    -2.0108987665612e-10
 136    -1.1710785385973e-06
 137    -2.00325332313e-05
 138    5.4072706080419e-09
 139    -3.3803631514994e-06
 140    1.1407473953329e-06
 141    6.6208291204473e-06
 142    -2.5246971344262e-05
 143    -2.7744897968807e-06
 144    -6.8304043930301e-10
 145    -1.1711178956047e-06
 146    2.0033020952966e-05
 147    -4.8728750417127e-10
 148    -3.3800338943734e-06
 149    -2.9081295720852e-06
 150    1.8432238769292e-09
 151    -2.9059969926897e-06
 152     6.57110350498e-09
 153    2.9073427512778e-06
 154    -4.1158730527164e-09
 155    2.9069402829817e-06
 156    -4.0563900909248e-09
 157    -2.4664570584036e-07
 158    -1.5166818537477e-06
 159    5.595596134585e-06
 160    6.8216327326004e-07
 161    4.8982479817693e-11
 162    -2.6760447790117e-07
 163    -4.43666638465e-06
 164    7.1034156527588e-10
 165    -7.2956627682011e-07
 166    2.4665587757379e-07
 167    1.5167635670864e-06
 168    -5.5957808050611e-06
 169    -6.8221188947075e-07
 170    -1.8424142803859e-10
 171    -2.6760430756593e-07
 172    4.436819150986e-06
 173    2.8057307532562e-10
 174    -7.2950464597276e-07
 175    -6.6100639066071e-07
 176    4.330414750454e-09
 177    -6.6085432683274e-07
 178    5.4410362940172e-09
 179    6.6095925053422e-07
 180    -5.0297856349103e-09
 181    6.6094900940414e-07
 182    -4.6793056017945e-09
 183    -6.4772386534938e-08
 184    -4.1754577774582e-07
 185    1.5188209510057e-06
 186    1.2460328267824e-07
 187    -1.3535622066229e-11
 188    -6.8769372202233e-08
 189    -8.4695460081863e-07
 190    3.498128045886e-10
 191    -2.3107666409335e-07
 192    6.4775931863248e-08
 193    4.175758644408e-07
 194    -1.5188862929456e-06
 195    -1.2461457688964e-07
 196    -4.1612843579632e-11
 197    -6.8769553782882e-08
 198    8.4699200872065e-07
 199    -2.5671663433984e-11
 200    -2.3105565978841e-07
 201    -1.7515287097949e-07
 202    -3.3197974975708e-09
 203    -1.7501902738551e-07
 204    -2.9907893042683e-09
 205    1.7510581025174e-07
 206    3.1558114781942e-09
 207    1.7508353101588e-07
 208    3.1740962665143e-09
 Sym= A
 Ene=               2
 Spin= Alpha
 Occup=    1.00000
   1    -0.0098243936366745
   2    0.0041498429386137
   3     0.044955464530387
   4     0.038742230613428
   5    -1.7929596761078e-06
   6    -0.0020752590267095
   7      0.05115428189061
   8    4.9956639954177e-06
   9    -0.0031989810501681
  10    -0.0098243027359505
  11    0.0041499804755586
  12     0.044954470881623
  13     0.038742102574209
  14    8.7586143632738e-09
  15    0.0020754199664183
  16     0.051154041264718
  17    -4.7818833657612e-06
  18    0.0031983776381876
  19    0.0020474430477041
  20    0.0072168804823627
  21    0.0020486980030026
  22    0.0072207068225341
  23    0.0020490177470121
  24     0.007220861231678
  25    0.0020470200323282
  26    0.0072161827844323
  27    -0.00073228965261037
  28    0.0021366125697982
  29    0.0033707038971963
  30      0.34155116197983
  31    2.3977348176771e-08
  32    0.00028480678247975
  33      0.41147126219213
  34    1.6904692256757e-06
  35    0.00010621498200297
  36    -0.00073227952557629
  37    0.0021366035199676
  38    0.0033704055843971
  39      0.34154942673212
  40    1.2554046927129e-07
  41    -0.0002848980959051
  42      0.41146905702425
  43    -1.1289690971401e-06
  44    -0.00010645125217546
  45    -0.00080065705918632
  46    -0.00073065058721532
  47    -0.00080003118381665
  48    -0.0007290194082746
  49    -0.00080032228883109
  50    -0.00072954887424037
  51    -0.00080030570249224
  52    -0.00073011300707576
  53    0.0094538783595055
  54    -0.005487284350079
  55    -0.041810453817721
  56     0.039058925722156
  57    1.7731981587982e-06
  58    0.0022803573309504
  59     0.054695186668521
  60    -3.8276553514255e-06
  61    0.0032190593433551
  62    0.0094537913803735
  63    -0.0054874155180197
  64    -0.041809605265014
  65     0.039058798247109
  66    4.9430702831474e-08
  67    -0.0022805204483397
  68     0.054694922998239
  69    4.0572575133357e-06
  70    -0.0032185911224688
  71    -0.0023995804607353
  72    -0.0072615478181117
  73    -0.0024004156272152