[Molden Format]
made by pyscf v[2.8.0]
[Atoms] (AU)
Ni   1   18     0.00000000000000     0.00000000000000     0.00000000000000
Ni   2   18     7.88015793943631     7.88015793943631     7.88015793943631
O   3   6     3.94007896971815     3.94007896971815     3.94007896971815
O   4   6    11.82023690915446    11.82023690915446    11.82023690915446
[GTO]
1 0
 s    5 1.00
       10.077427756816   -0.16816538591041
        5.847735848326   -0.31203986825241
        2.494032826008    0.76231213094128
        0.988354848429    0.55437604679043
        0.344978242158    0.03155701098717
 s    5 1.00
       10.077427756816   0.058000950062097
        5.847735848326    0.14653254811322
        2.494032826008   -0.50777581008225
        0.988354848429    -1.0938070247199
        0.344978242158    0.66529670756055
 s    5 1.00
       10.077427756816  0.0053460448296085
        5.847735848326   -0.08418457883001
        2.494032826008  0.0015718453997724
        0.988354848429   -0.87757432617674
        0.344978242158     1.5777647329419
 p    5 1.00
       10.077427756816   -0.12236774170237
        5.847735848326    0.23342048133724
        2.494032826008    0.52638460167342
        0.988354848429    0.39425731817561
        0.344978242158   0.051608556148131
 p    5 1.00
       10.077427756816  -0.012616972687739
        5.847735848326  -0.025194607896872
        2.494032826008   -0.22268415555677
        0.988354848429   -0.22497484726751
        0.344978242158     1.1712751328261
 d    5 1.00
       10.077427756816    0.08918252306285
        5.847735848326    0.25567343360121
        2.494032826008     0.3554995300545
        0.988354848429    0.34934981895974
        0.344978242158    0.26737625455372
 d    5 1.00
       10.077427756816  -0.093993451492197
        5.847735848326   -0.36074197756838
        2.494032826008    -0.5570889903816
        0.988354848429   -0.15334190860524
        0.344978242158    0.42481173879085
 f    5 1.00
       10.077427756816  -0.0083683152125103
        5.847735848326    0.03763133075813
        2.494032826008   0.027363949027932
        0.988354848429    0.87387054931809
        0.344978242158    0.16755768848104

2 0
 s    5 1.00
       10.077427756816   -0.16816538591041
        5.847735848326   -0.31203986825241
        2.494032826008    0.76231213094128
        0.988354848429    0.55437604679043
        0.344978242158    0.03155701098717
 s    5 1.00
       10.077427756816   0.058000950062097
        5.847735848326    0.14653254811322
        2.494032826008   -0.50777581008225
        0.988354848429    -1.0938070247199
        0.344978242158    0.66529670756055
 s    5 1.00
       10.077427756816  0.0053460448296085
        5.847735848326   -0.08418457883001
        2.494032826008  0.0015718453997724
        0.988354848429   -0.87757432617674
        0.344978242158     1.5777647329419
 p    5 1.00
       10.077427756816   -0.12236774170237
        5.847735848326    0.23342048133724
        2.494032826008    0.52638460167342
        0.988354848429    0.39425731817561
        0.344978242158   0.051608556148131
 p    5 1.00
       10.077427756816  -0.012616972687739
        5.847735848326  -0.025194607896872
        2.494032826008   -0.22268415555677
        0.988354848429   -0.22497484726751
        0.344978242158     1.1712751328261
 d    5 1.00
       10.077427756816    0.08918252306285
        5.847735848326    0.25567343360121
        2.494032826008     0.3554995300545
        0.988354848429    0.34934981895974
        0.344978242158    0.26737625455372
 d    5 1.00
       10.077427756816  -0.093993451492197
        5.847735848326   -0.36074197756838
        2.494032826008    -0.5570889903816
        0.988354848429   -0.15334190860524
        0.344978242158    0.42481173879085
 f    5 1.00
       10.077427756816  -0.0083683152125103
        5.847735848326    0.03763133075813
        2.494032826008   0.027363949027932
        0.988354848429    0.87387054931809
        0.344978242158    0.16755768848104

3 0
 s    5 1.00
       10.389228018317   0.096173629276308
        3.849621072005    0.10660531634684
        1.388401188741   -0.33089834130169
        0.496955043655    -0.6496800688702
         0.16249161504   -0.18463001807573
 s    5 1.00
       10.389228018317   0.073630541584408
        3.849621072005    0.12300997725073
        1.388401188741   -0.34343118342323
        0.496955043655   -0.10206354789477
         0.16249161504     1.1731714191581
 p    5 1.00
       10.389228018317  -0.057562550918086
        3.849621072005    -0.1784919811951
        1.388401188741   -0.35468525474322
        0.496955043655   -0.42655539522159
         0.16249161504    -0.2416879946641
 p    5 1.00
       10.389228018317  -0.021265755186923
        3.849621072005  -0.0049739296849897
        1.388401188741    -0.1779930881255
        0.496955043655    0.30108256988861
         0.16249161504    0.83447656856867
 d    5 1.00
       10.389228018317   0.018871300922529
        3.849621072005   0.038532527740515
        1.388401188741    0.46305094876991
        0.496955043655    0.56500599531169
         0.16249161504   0.096713771818926

4 0
 s    5 1.00
       10.389228018317   0.096173629276308
        3.849621072005    0.10660531634684
        1.388401188741   -0.33089834130169
        0.496955043655    -0.6496800688702
         0.16249161504   -0.18463001807573
 s    5 1.00
       10.389228018317   0.073630541584408
        3.849621072005    0.12300997725073
        1.388401188741   -0.34343118342323
        0.496955043655   -0.10206354789477
         0.16249161504     1.1731714191581
 p    5 1.00
       10.389228018317  -0.057562550918086
        3.849621072005    -0.1784919811951
        1.388401188741   -0.35468525474322
        0.496955043655   -0.42655539522159
         0.16249161504    -0.2416879946641
 p    5 1.00
       10.389228018317  -0.021265755186923
        3.849621072005  -0.0049739296849897
        1.388401188741    -0.1779930881255
        0.496955043655    0.30108256988861
         0.16249161504    0.83447656856867
 d    5 1.00
       10.389228018317   0.018871300922529
        3.849621072005   0.038532527740515
        1.388401188741    0.46305094876991
        0.496955043655    0.56500599531169
         0.16249161504   0.096713771818926

[5d]
[7f]
[9g]
[core]
1 : 10
2 : 10
3 : 2
4 : 2

[MO]
 Sym= A
 Ene=               0
 Spin= Alpha
 Occup=    1.00000
   1    -0.058489954015879
   2     0.025398529715905
   3     0.025756205507054
   4    2.6794924282733e-07
   5    2.6794983851623e-07
   6    2.6794951582702e-07
   7    -1.354609117641e-07
   8    -1.3546231283862e-07
   9    -1.3546147392239e-07
  10    5.8844981577614e-09
  11    -0.0017795937336435
  12    -0.0017795497269877
  13    -2.5756094183515e-07
  14    -0.0017795712624398
  15    1.8423477850347e-10
  16    -0.0012874401542873
  17    -0.0012874101451581
  18    -9.6611074678752e-08
  19    -0.0012874254923369
  20    -3.3485614374949e-08
  21    2.0505602163525e-08
  22    2.0505772435491e-08
  23    5.9451129819128e-14
  24    -8.4507217547523e-10
  25    -2.647256336071e-08
  26    2.6472876335963e-08
  27    -0.058491985434599
  28     0.025400046356638
  29     0.025756909191408
  30    -2.6796698328105e-07
  31    -2.6796614743584e-07
  32    -2.6796650994893e-07
  33    1.3540315413047e-07
  34    1.3540329570435e-07
  35    1.3540309031006e-07
  36    -1.4040043109348e-09
  37    -0.001780645733112
  38    -0.0017806501364392
  39    3.2028436935426e-07
  40    -0.0017806469444815
  41    -2.1416266400103e-09
  42    -0.0012875002279995
  43    -0.0012875039684212
  44    8.7917556406174e-08
  45    -0.0012875020782269
  46    3.346797917652e-08
  47    -2.0494999295685e-08
  48    -2.0494795023101e-08
  49    -4.1589721194127e-14
  50    8.4471213646106e-10
  51    2.6458892973795e-08
  52    -2.6458698630565e-08
  53     -0.61702031452673
  54     0.043924540426956
  55    4.2212953887586e-06
  56    3.2297113421761e-06
  57    3.7146760791507e-06
  58    -7.1701049749539e-07
  59    -5.3793085248782e-07
  60    -6.2551913811534e-07
  61    -5.1037937929878e-10
  62    0.00052928648955336
  63    0.0005292898766001
  64    -7.3284741354204e-09
  65    0.00052928829036042
  66     -0.61701060325527
  67     0.043923917095002
  68    -4.221265139211e-06
  69    -3.2296973685681e-06
  70    -3.7146545326146e-06
  71    7.1674995527709e-07
  72    5.3767514039982e-07
  73    6.2526121120298e-07
  74    -5.1037121570867e-10
  75    0.00052927494792191
  76    0.00052927833546715
  77    -7.3274376432646e-09
  78    0.00052927674900514
 Sym= A
 Ene=               1
 Spin= Alpha
 Occup=    1.00000
   1    4.2396302756982e-07
   2    -1.853285122103e-07
   3    -1.8415594363312e-07
   4     0.036546135082372
   5     0.036546232618865
   6     0.036546185367209
   7     -0.01832456095245
   8    -0.018324657271709
   9    -0.018324610154416
  10    -1.0265743300766e-13
  11    2.1200262724772e-08
  12    2.1199766782463e-08
  13    2.2521993485743e-12
  14    2.1200060207532e-08
  15    -6.3006353351118e-16
  16    8.3749110600499e-09
  17    8.3745459553085e-09
  18    6.5133174422225e-13
  19    8.3748175059577e-09
  20    -0.0045393214916258
  21    0.0027797445827105
  22    0.0027797665894731
  23    5.9028613457781e-09
  24    -0.00011067513763693
  25    -0.0035886304264539
  26    0.0035886674525299
  27    4.2390484214485e-07
  28    -1.8545021987195e-07
  29    -1.8398181266242e-07
  30    -0.036546765430148
  31     -0.03654666473287
  32    -0.036546714432183
  33     0.018324959345331
  34     0.018324868163753
  35     0.018324912752402
  36    -6.1600757140418e-14
  37     2.11571057092e-08
  38    2.1156887180541e-08
  39    -2.1728055643284e-12
  40    2.1156970870721e-08
  41    -1.022556300924e-14
  42    8.3298256610706e-09
  43    8.3301667817065e-09
  44    -6.4713958232955e-13
  45    8.329994135476e-09
  46    0.0045394449954872
  47    -0.0027798430678248
  48    -0.0027798205025748
  49    -7.2932040390625e-10
  50    0.0001106570375853
  51     0.003588761353365
  52    -0.0035887330953755
  53      -0.6638088311955
  54     0.041478368156161
  55    3.7463405123807e-06
  56    2.6979546341106e-06
  57    3.2107029016475e-06
  58    -7.7694205518337e-07
  59    -4.8441618824113e-07
  60    -6.2748975924687e-07
  61    -5.4931441429299e-10
  62    0.00074324356379638
  63    0.00074324416672691
  64    -6.479934349566e-09
  65    0.00074324381189043
  66      0.66381790148704
  67    -0.041478986438014
  68    3.7463997898248e-06
  69    2.698000511324e-06
  70    3.2107558056215e-06
  71    -7.7704874066806e-07
  72    -4.8452114520139e-07
  73    -6.2759573713717e-07
  74    5.4936906922006e-10
  75    -0.00074325016717668
  76    -0.0007432507712335
  77    6.4795325698216e-09
  78    -0.00074325041590393
 Sym= A
 Ene=               2
 Spin= Alpha
 Occup=    1.00000
   1    -0.070964897703034
   2     0.049418783190357
   3     0.026952678513375
   4    4.1609428453875e-08
   5    4.1610827045417e-08
   6     4.16098603209e-08
   7    -2.7030442926844e-08
   8    -2.7032791183373e-08
   9    -2.7031083660052e-08
  10    -6.8084388211944e-08
  11     -0.18767947540747
  12     -0.18769613617331
  13    4.9236688341676e-07
  14     -0.18768766027857
  15    4.9880623639199e-09
  16    -0.0019337355595339
  17    -0.0019336214651484
  18    -1.7792221754995e-07
  19    -0.0019336772325847
  20    -9.6981806751881e-09
  21    5.9387683824489e-09
  22    5.938977532587e-09
  23    -1.9605889162923e-13
  24    1.0070096453861e-11
  25    -7.6671639395063e-09
  26    7.667116000048e-09
  27     0.070964305835726
  28    -0.049418761440321
  29    -0.026951998953131
  30    4.1613110444041e-08
  31    4.1615256408625e-08
  32    4.1614095690525e-08
  33    -2.7007358297036e-08
  34    -2.701112592841e-08
  35    -2.7009086448066e-08
  36    4.2563947990863e-08
  37      0.18780262809885
  38      0.18778623733272
  39    1.5089597166425e-06
  40      0.18779464811504
  41    7.2194267952256e-10
  42    0.0019342098027049
  43    0.0019342885548815
  44    -2.7126291029605e-07
  45    0.0019342458100477
  46    -9.6973638819012e-09
  47    5.9381785090796e-09
  48    5.9386504856739e-09
  49    -5.3109747330295e-13
  50    8.9114300761962e-12
  51    -7.6665923379703e-09
  52    7.6663382165487e-09
  53    -8.9044528931126e-06
  54    -8.202249712918e-07
  55     -0.24280377769086
  56     -0.24280443562134
  57     -0.24280404756013
  58     0.042849398155302
  59     0.042849403567003
  60     0.042849398227176
  61    3.6092233118027e-10
  62    -9.3040853399156e-07
  63    -7.051166648157e-07
  64    -2.8148829437232e-08
  65    -8.202291352452e-07
  66    -8.904504327705e-06
  67    -8.201675612241e-07
  68      0.24280278129059
  69      0.24280343922812
  70      0.24280305116155
  71    -0.042849184667268
  72    -0.042849190070127
  73     -0.04284918473545
  74    3.6114007132221e-10
  75    -9.3041458587118e-07
  76    -7.0512156559391e-07
  77    -2.8149695462819e-08
  78    -8.20234813706e-07
 Sym= A
 Ene=               3
 Spin= Alpha
 Occup=    1.00000
   1    6.3920590582915e-09
   2    -4.9785156877309e-08
   3    -2.2927532923929e-08
   4    -4.2195998360882e-08
   5    8.6146033744014e-08
   6    -4.3950675912624e-08
   7    1.8978585119001e-08
   8    -3.8746012682003e-08
   9    1.9766871169992e-08
  10     -0.15147106303956
  11      0.29653557120532
  12     -0.14529587828658
  13     -0.25540324110445
  14     -0.15127938854735
  15    -0.015569564414257
  16    0.0015606644906535
  17    -0.00076456906949262
  18    -0.026252709774206
  19    -0.00079605179487168
  20    1.2971305920621e-08
  21    -5.1309034448387e-09
  22    1.5603448992824e-08
  23    3.1142013493456e-09
  24    -4.2299854762447e-13
  25    1.1778362281094e-08
  26    2.007461803203e-08
  27    -2.4661564363836e-07
  28    1.2397592448085e-07
  29    8.1802364606197e-08
  30    -4.2196560530101e-08
  31    8.6148086520181e-08
  32    -4.3952166826815e-08
  33    1.8977336096651e-08
  34    -3.8743054275934e-08
  35    1.976573900871e-08
  36       0.1514931223985
  37     -0.29750929700807
  38      0.14568382760869
  39      0.25539337160812
  40      0.15178691797929
  41     0.015581647854829
  42    -0.0015609364922161
  43    0.00076429010016308
  44     0.026268174674051
  45    0.00079637652944795
  46    1.2969910396033e-08
  47    -5.1287770607787e-09
  48    1.5602707595633e-08
  49    3.1164514125964e-09
  50    -4.8154049403792e-13
  51    1.1778842169887e-08
  52    2.0073183738421e-08
  53    9.9556614115675e-07
  54    3.2301960092168e-07
  55      0.17721391710973
  56     -0.36178825099624
  57      0.18457537239377
  58    -0.024990417915738
  59     0.051018629073697
  60    -0.026028519096783
  61    1.289068197491e-06
  62    7.4882059735815e-06
  63    -2.9317605176843e-06
  64    1.3738157771502e-06
  65    -3.9685531587746e-06
  66    9.9556431631365e-07
  67    3.2301989707388e-07
  68      -0.1772128955518
  69      0.36178616540765
  70     -0.18457430833692
  71     0.024990187276924
  72    -0.051018158209792
  73     0.026028278877052
  74    1.2890661443698e-06
  75    7.4882151891528e-06
  76    -2.9317646267247e-06
  77    1.3738124721869e-06
  78    -3.9685586337875e-06
 Sym= A
 Ene=               4
 Spin= Alpha
 Occup=    1.00000
   1    1.5608129957822e-08
   2    1.5400560326065e-08
   3    5.8197757582292e-09
   4    7.5106408158496e-08
   5    -1.0107118818215e-09
   6    -7.4095363556755e-08
   7    -3.3782033853433e-08
   8    4.5515493872232e-10
   9    3.3326921031082e-08
  10     -0.25542747569102
  11    -0.0035056096496806
  12       0.2586717704431
  13      0.15151299931708
  14     -0.25514205082881
  15    -0.026255258430727
  16    -1.8503970735821e-05
  17    0.0013613420875856
  18     0.015573954898391
  19    -0.0013428400602902
  20    2.1869147163854e-08
  21    1.4976628474103e-08
  22    2.6800578574128e-09
  23    -1.8471162394602e-09
  24    1.5179596430818e-13
  25    -1.6439113310962e-08
  26    -2.4535281539994e-09
  27    1.3097638461784e-07
  28    -6.0683444803048e-08
  29    -4.1721943751137e-08
  30    7.5106886977793e-08
  31    -1.0102552201475e-09
  32    -7.4096469358129e-08
  33    -3.377964236313e-08
  34    4.5494271483614e-10
  35    3.3324548882116e-08
  36      0.25536918887063
  37    0.0034727490387663
  38     -0.25927577416193
  39     -0.15145103111667
  40       0.2558266665382
  41     0.026265674674874
  42    1.8202566631173e-05
  43    -0.0013602506440024
  44    -0.015577276378551
  45    0.0013421881442362
  46    2.1868412448973e-08
  47    1.4976780879527e-08
  48    2.6816091366193e-09
  49    -1.8479247436282e-09
  50    2.4976498844301e-13
  51    -1.6437838056762e-08
  52    -2.4552797673781e-09
  53    -6.0755677168427e-07
  54    -1.9711980138513e-07
  55     -0.31544346569699
  56    0.0042499740782534
  57      0.31119305409027
  58     0.044483265801163
  59    -0.00059929304810344
  60    -0.043883832861488
  61    5.5312143287361e-07
  62    3.2268173080633e-07
  63    4.4163682546917e-06
  64    1.3523303906024e-07
  65    -5.0978171624191e-06
  66    -6.075554305015e-07
  67    -1.9712013310153e-07
  68       0.3154416473835
  69    -0.0042499496192293
  70     -0.31119126024526
  71    -0.044482855258329
  72    0.00059928751611397
  73     0.043883427847927
  74    5.5311786255242e-07
  75    3.2268247371898e-07
  76    4.416374656793e-06
  77    1.352350457979e-07
  78    -5.0978238458394e-06
 Sym= A
 Ene=               5
 Spin= Alpha
 Occup=    1.00000
   1    2.0305586195426e-06
   2    -1.6286305171899e-06
   3    -6.7378940647064e-07
   4    -2.3840705522168e-09
   5    6.6372442269692e-10
   6    1.7122651953152e-09
   7    3.8997991608609e-09
   8    -1.088709734867e-09
   9    -2.8062195889931e-09
  10     -0.05683772235693
  11      0.15299077284453
  12     -0.54705796527239
  13      0.05829629133254
  14        0.394045944089
  15    0.0043185918652199
  16    -0.00035897216903793
  17    0.0012841949329375
  18    -0.0044295399591942
  19    -0.00092480540905811
  20    4.6985257629422e-10
  21    -4.8240399642144e-11
  22    -1.8583610878998e-09
  23    1.6426825487609e-09
  24    -5.265123623214e-13
  25    -8.6102640909695e-10
  26    1.2082620558034e-09
  27    -2.0151593290268e-06
  28    1.6118710715676e-06
  29    6.9803964202413e-07
  30    2.1587969211364e-09
  31    -6.0589094851324e-10
  32    -1.5579851661956e-09
  33    -3.8136699526054e-09
  34    1.0680278686648e-09
  35    2.7492066844014e-09
  36    -0.057428813903722
  37      0.15312357472245
  38      -0.5474637651023
  39     0.058904265610665
  40      0.39436349238577
  41    0.0042804163874462
  42    -0.00036476363757341
  43    0.0013034856090249
  44    -0.0043902607435514
  45    -0.00093917638250294
  46    -5.1467527099972e-10
  47    6.9297229862775e-12
  48    1.8643407956296e-09
  49    -1.6384185523603e-09
  50    7.0904802174288e-13
  51    9.1181760046106e-10
  52    -1.1918361029544e-09
  53    -7.4153703714868e-09
  54    -8.3715626022719e-09
  55    0.00039978673240893
  56    -0.00010208061550123
  57    -0.00027359798834542
  58    -5.385380003149e-05
  59    1.3472018841551e-05
  60    3.6476729330817e-05
  61    -6.5035117468671e-05
  62    -0.0022095471373925
  63    0.0079003098821176
  64    6.6705561364503e-05
  65    -0.0056907772942046
  66     -7.4157052769e-09
  67    -8.3722367478716e-09
  68    -0.00039978399180248
  69    0.00010207992193432
  70    0.00027359612135667
  71    5.3853140953479e-05
  72    -1.3471850102958e-05
  73    -3.6476277420272e-05
  74    -6.5035601516043e-05
  75    -0.0022095482785101
  76    0.0079003139617962
  77    6.6706057813591e-05
  78    -0.0056907802330295
 Sym= A
 Ene=               6
 Spin= Alpha
 Occup=    1.00000
   1    -1.929775276084e-06
   2    1.5476917895322e-06
   3    6.4074232122678e-07
   4    6.1670851429112e-10
   5    -2.3922330110444e-09
   6    1.7839550768476e-09
   7    -9.9664502196328e-10
   8    3.8826229646287e-09
   9    -2.8908230861387e-09
  10    -0.058228827847943
  11     -0.54332431257052
  12      0.13917603721471
  13    -0.056769789648807
  14      0.40416889036572
  15    0.0044346815792213
  16    0.0012732048417183
  17    -0.00032627816359733
  18    0.0043236965562629
  19    -0.00094733045329827
  20    4.7529732572285e-10
  21    -1.8587514500628e-09
  22    -1.0013752430485e-10
  23    -1.6027870525455e-09
  24    7.3062138363368e-13
  25    -1.2330556167061e-09
  26    8.8712748396872e-10
  27    1.9164424940851e-06
  28    -1.5330134040228e-06
  29    -6.6343710753133e-07
  30    -5.4174092273197e-10
  31    2.122669354828e-09
  32    -1.5764055977192e-09
  33    9.6643512053443e-10
  34    -3.7789853397633e-09
  35    2.8091973926602e-09
  36    -0.058971312827452
  37     -0.54378677403464
  38      0.13927681653234
  39    -0.057495410851606
  40      0.40448821925296
  41    0.0043851195843795
  42    0.0012968514363591
  43    -0.00033201007833659
  44    0.0042752369304314
  45    -0.00096441625487437
  46    -5.369303917684e-10
  47    1.866397950922e-09
  48    4.9760574531931e-11
  49    1.5978609898734e-09
  50    -7.5847951143229e-13
  51    1.2110125309842e-09
  52    -9.4934433511723e-10
  53    3.6387400487633e-09
  54    5.0001213977127e-09
  55    -0.000133940060425
  56    0.00048290540593618
  57    -0.00037188452472778
  58    1.8316192745028e-05
  59    -6.5081755706639e-05
  60    5.0478078002115e-05
  61    -6.670241050131e-05
  62      0.00784682831354
  63    -0.0020098878093493
  64    -6.5032223140456e-05
  65    -0.0058369319682393
  66    3.6389297306263e-09
  67    5.0007110602952e-09
  68    0.0001339391415424
  69    -0.0004829021167044
  70    0.0003718819828121
  71    -1.8315975485274e-05
  72    6.508097084852e-05
  73    -5.0477473919215e-05
  74    -6.6702906460259e-05
  75    0.0078468323662016
  76    -0.0020098888472576
  77    -6.503270664043e-05
  78    -0.0058369349826267
 Sym= A
 Ene=               7
 Spin= Alpha
 Occup=    1.00000
   1    -0.0035016760597337
   2    0.0019548636551505
   3    0.00056532125886974
   4    3.4543825921774e-09
   5    3.4148855798479e-09
   6    3.4339143430081e-09
   7    -4.8067417102145e-09
   8    -4.7901714454532e-09
   9    -4.7982653052896e-09
  10    -1.3366046520924e-06
  11     -0.40382409835902
  12     -0.40404579440733
  13    8.8223908426838e-05
  14     -0.40393235975861
  15    -3.9415540069177e-08
  16    -0.0021120044060015
  17    -0.0021063510690769
  18    3.8508285888959e-06
  19    -0.0021092361963653
  20    1.2305061806301e-09
  21    -7.4994675375673e-10
  22    -7.5724095446774e-10
  23    -9.8448591173577e-13
  24    -1.9740522541622e-09
  25    9.6717124623814e-10
  26    -9.781948606495e-10
  27    -0.0034459918137217
  28    0.0019098959295953
  29    0.00054573105466238
  30    -3.3269948631576e-09
  31    -3.3701918738988e-09
  32    -3.3489675199684e-09
  33    4.7430558660379e-09
  34    4.7606385125495e-09
  35    4.7521446326168e-09
  36    9.310163729146e-07
  37     -0.40430579070336
  38     -0.40408717281319
  39    -9.145479497306e-05
  40     -0.40419870955609
  41    5.5160273217546e-08
  42    -0.002103459155499
  43    -0.0021091378737229
  44    -3.6560664292933e-06
  45    -0.0021062330940079
  46    -1.2509707401571e-09
  47    7.7021428662786e-10
  48    7.6216650896764e-10
  49    7.6381118289326e-13
  50    1.9783089374557e-09
  51    -9.9365945573212e-10
  52    9.8451596172843e-10
  53      0.01358540395742
  54     0.010542562614624
  55    -0.00017655684160854
  56    -5.1748987521977e-05
  57    -0.00011278936904173
  58    2.5964982255871e-05
  59    9.8879347695854e-06
  60    1.7750849222931e-05
  61    -1.3940660691739e-09
  62    0.0063023259517596
  63    0.0063023458860816
  64    -5.7040273082117e-09
  65    0.0063023331626014
  66     0.013585422998887
  67     0.010542560031666
  68    0.00017655527258144
  69    5.1748436353003e-05
  70    0.00011278832022369
  71    -2.5964622459413e-05
  72    -9.8878039853756e-06
  73    -1.7750606406145e-05
  74    -1.3940919204127e-09
  75    0.0063023287545094
  76    0.0063023486883545
  77    -5.7041070201272e-09
  78    0.0063023359650724
 Sym= A
 Ene=               8
 Spin= Alpha
 Occup=    1.00000
   1    -5.9110658994909e-07
   2    3.1083970979634e-07
   3    5.1274113368635e-08
   4    -7.0565031025801e-08
   5    1.2621624699583e-08
   6    5.7945305320935e-08
   7    2.8612752588305e-08
   8    -5.118662685227e-09
   9    -2.3496481520984e-08
  10       0.2135218629832
  11    -0.081629080949726
  12      0.45593889453824
  13     -0.17698433338515
  14     -0.37453448786104
  15    0.0070998297871852
  16    0.0018520718238608
  17     -0.01035718616553
  18    -0.0058852615134949
  19    0.0085039134245722
  20    -1.8341213071273e-08
  21    -1.3924040050297e-08
  22    1.7506479521767e-09
  23    5.6997708604268e-10
  24    -8.170850743443e-14
  25    1.7468628842778e-08
  26    3.6969403300292e-09
  27    -7.1993733192807e-07
  28    4.0211353342661e-07
  29    1.2960886587692e-07
  30    -7.0568779126697e-08
  31    1.2621664556116e-08
  32    5.7947078121511e-08
  33    2.8616365097784e-08
  34    -5.1174619488965e-09
  35    -2.3496643817303e-08
  36      -0.2134367235218
  37     0.081337853161374
  38     -0.45520165765566
  39      0.17690713092869
  40      0.37364106748978
  41    -0.0071098753365332
  42    -0.0018524488510536
  43     0.010354218720754
  44    0.0058927555465958
  45    -0.0085031493503991
  46    -1.8340559565097e-08
  47    -1.3923904282487e-08
  48    1.7481433170731e-09
  49    5.7227894340056e-10
  50    9.9762049150197e-13
  51    1.7466283229358e-08
  52    3.6990327359366e-09
  53    2.7327402567732e-06
  54    1.9355578493908e-06
  55      0.19152012048465
  56     -0.03425514179512
  57     -0.15726430014916
  58     -0.02394931589927
  59     0.004283533711396
  60     0.019665617824843
  61    -3.0401283828885e-07
  62    2.1768898642673e-06
  63    -5.2758585171333e-06
  64    1.2588193605478e-07
  65    6.5995370316463e-06
  66    2.7327418889591e-06
  67    1.9355575241506e-06
  68     -0.19151835748563
  69     0.034254826483606
  70       0.1572628524779
  71     0.023948919257234
  72    -0.0042834627692836
  73    -0.019665292125912
  74    -3.0401152505471e-07
  75    2.1768906706958e-06
  76    -5.2758617330806e-06
  77    1.2588097701207e-07
  78    6.5995405102157e-06
 Sym= A
 Ene=               9
 Spin= Alpha
 Occup=    1.00000
   1    -6.8437096916648e-07
   2    3.5755952857704e-07
   3    5.4729529132782e-08
   4    -2.6166671911313e-08
   5    7.4198625999175e-08
   6    -4.8028907136565e-08
   7    1.0609590696929e-08
   8    -3.0086600324188e-08
   9    1.9473858338823e-08
  10     -0.17696315926936
  11     -0.47964595895921
  12      0.16903474817401
  13     -0.21350471838146
  14      0.31034686291623
  15    -0.0058826792582129
  16     0.010888369260373
  17    -0.0038408018315054
  18    -0.0070978003401952
  19    -0.0070489704775957
  20    1.5204327575656e-08
  21    -4.4113286833849e-09
  22    1.450104312489e-08
  23    6.8685170189644e-10
  24    1.237715077229e-13
  25    7.0613468036302e-09
  26    1.8476673431365e-08
  27    -8.573553113707e-07
  28    4.8083183358015e-07
  29    1.5798128488422e-07
  30    -2.6168688490864e-08
  31     7.42002042064e-08
  32    -4.8031411908463e-08
  33    1.0612228977288e-08
  34    -3.0086610011168e-08
  35    1.9477037589395e-08
  36      0.17692769349949
  37      0.47836160758726
  38     -0.16883457595934
  39      0.21345329498115
  40     -0.30978881100346
  41    0.0058953371675659
  42    -0.010888352331313
  43    0.0038393189501884
  44    0.0071120173472012
  45    0.0070474020912983
  46    1.5202863252239e-08
  47    -4.4077414267066e-09
  48    1.4500815197977e-08
  49    6.8954326125353e-10
  50    1.2484089810285e-12
  51    7.0626565930301e-09
  52    1.8475607877134e-08
  53    3.2135498344893e-06
  54    2.2761002740096e-06
  55     0.071019896686129
  56     -0.20137063261619
  57      0.13035164724081
  58    -0.0088809668583459
  59     0.025181062117391
  60    -0.016300315108913
  61    9.1553325970533e-07
  62    9.6893313385868e-06
  63    -1.4243405300509e-06
  64    9.4191324694176e-07
  65    -4.1485434670064e-06
  66    3.2135518281937e-06
  67    2.2760998240156e-06
  68    -0.071019242892355
  69      0.20136877883061
  70     -0.13035044722344
  71    0.0088808197720829
  72    -0.025180645063996
  73     0.016300045140607
  74    9.1553220504297e-07
  75    9.6893368860897e-06
  76    -1.4243416420526e-06
  77    9.4191210799029e-07
  78    -4.1485464253847e-06
 Sym= A
 Ene=              10
 Spin= Alpha
 Occup=    1.00000
   1    -0.042916376160167
   2     0.037182147919674
   3     0.014404590855425
   4    2.3714447120645e-07
   5    2.3714613637877e-07
   6    2.3714537327811e-07
   7    -1.4923103283849e-07
   8    -1.4923418402381e-07
   9    -1.4923215079652e-07
  10    -1.842634241257e-09
  11       0.3639594044522
  12      0.36392422777859
  13    2.1175553602687e-06
  14      0.36394222280963
  15    -1.1844618609868e-08
  16    -0.0029975916707616
  17    -0.0029977205375365
  18    -5.2360108416975e-07
  19    -0.0029976610601531
  20    -5.9565163633859e-08
  21    3.6476157597139e-08
  22    3.647633666954e-08
  23    7.2581146936015e-13
  24    1.1062132389326e-08
  25    -4.7089740103007e-08
  26    4.7091152496402e-08
  27     0.042918711494243
  28    -0.037183631276492
  29    -0.014404643447606
  30    2.3714434225403e-07
  31    2.3714506667513e-07
  32    2.3714469469287e-07
  33    -1.4922066753305e-07
  34    -1.4922292797582e-07
  35    -1.4922160461875e-07
  36    -5.0308914330286e-08
  37     -0.36357614069926
  38     -0.36361378326205
  39    2.1656142336388e-06
  40     -0.36359457326027
  41    2.0478628152516e-08