[Molden Format]
made by pyscf v[2.8.0]
[Atoms] (AU)
Ni   1   18     1.97003948485908     1.97003948485908     1.97003948485908
Ni   2   18     9.85019742429539     9.85019742429539     9.85019742429539
O   3   6     5.91011845457723     5.91011845457723     5.91011845457723
O   4   6    13.79027639401354    13.79027639401354    13.79027639401354
[GTO]
1 0
 s    5 1.00
       10.077427756816   -0.16816538591041
        5.847735848326   -0.31203986825241
        2.494032826008    0.76231213094128
        0.988354848429    0.55437604679043
        0.344978242158    0.03155701098717
 s    5 1.00
       10.077427756816   0.058000950062097
        5.847735848326    0.14653254811322
        2.494032826008   -0.50777581008225
        0.988354848429    -1.0938070247199
        0.344978242158    0.66529670756055
 s    5 1.00
       10.077427756816  0.0053460448296085
        5.847735848326   -0.08418457883001
        2.494032826008  0.0015718453997724
        0.988354848429   -0.87757432617674
        0.344978242158     1.5777647329419
 p    5 1.00
       10.077427756816   -0.12236774170237
        5.847735848326    0.23342048133724
        2.494032826008    0.52638460167342
        0.988354848429    0.39425731817561
        0.344978242158   0.051608556148131
 p    5 1.00
       10.077427756816  -0.012616972687739
        5.847735848326  -0.025194607896872
        2.494032826008   -0.22268415555677
        0.988354848429   -0.22497484726751
        0.344978242158     1.1712751328261
 d    5 1.00
       10.077427756816    0.08918252306285
        5.847735848326    0.25567343360121
        2.494032826008     0.3554995300545
        0.988354848429    0.34934981895974
        0.344978242158    0.26737625455372
 d    5 1.00
       10.077427756816  -0.093993451492197
        5.847735848326   -0.36074197756838
        2.494032826008    -0.5570889903816
        0.988354848429   -0.15334190860524
        0.344978242158    0.42481173879085
 f    5 1.00
       10.077427756816  -0.0083683152125103
        5.847735848326    0.03763133075813
        2.494032826008   0.027363949027932
        0.988354848429    0.87387054931809
        0.344978242158    0.16755768848104

2 0
 s    5 1.00
       10.077427756816   -0.16816538591041
        5.847735848326   -0.31203986825241
        2.494032826008    0.76231213094128
        0.988354848429    0.55437604679043
        0.344978242158    0.03155701098717
 s    5 1.00
       10.077427756816   0.058000950062097
        5.847735848326    0.14653254811322
        2.494032826008   -0.50777581008225
        0.988354848429    -1.0938070247199
        0.344978242158    0.66529670756055
 s    5 1.00
       10.077427756816  0.0053460448296085
        5.847735848326   -0.08418457883001
        2.494032826008  0.0015718453997724
        0.988354848429   -0.87757432617674
        0.344978242158     1.5777647329419
 p    5 1.00
       10.077427756816   -0.12236774170237
        5.847735848326    0.23342048133724
        2.494032826008    0.52638460167342
        0.988354848429    0.39425731817561
        0.344978242158   0.051608556148131
 p    5 1.00
       10.077427756816  -0.012616972687739
        5.847735848326  -0.025194607896872
        2.494032826008   -0.22268415555677
        0.988354848429   -0.22497484726751
        0.344978242158     1.1712751328261
 d    5 1.00
       10.077427756816    0.08918252306285
        5.847735848326    0.25567343360121
        2.494032826008     0.3554995300545
        0.988354848429    0.34934981895974
        0.344978242158    0.26737625455372
 d    5 1.00
       10.077427756816  -0.093993451492197
        5.847735848326   -0.36074197756838
        2.494032826008    -0.5570889903816
        0.988354848429   -0.15334190860524
        0.344978242158    0.42481173879085
 f    5 1.00
       10.077427756816  -0.0083683152125103
        5.847735848326    0.03763133075813
        2.494032826008   0.027363949027932
        0.988354848429    0.87387054931809
        0.344978242158    0.16755768848104

3 0
 s    5 1.00
       10.389228018317   0.096173629276308
        3.849621072005    0.10660531634684
        1.388401188741   -0.33089834130169
        0.496955043655    -0.6496800688702
         0.16249161504   -0.18463001807573
 s    5 1.00
       10.389228018317   0.073630541584408
        3.849621072005    0.12300997725073
        1.388401188741   -0.34343118342323
        0.496955043655   -0.10206354789477
         0.16249161504     1.1731714191581
 p    5 1.00
       10.389228018317  -0.057562550918086
        3.849621072005    -0.1784919811951
        1.388401188741   -0.35468525474322
        0.496955043655   -0.42655539522159
         0.16249161504    -0.2416879946641
 p    5 1.00
       10.389228018317  -0.021265755186923
        3.849621072005  -0.0049739296849897
        1.388401188741    -0.1779930881255
        0.496955043655    0.30108256988861
         0.16249161504    0.83447656856867
 d    5 1.00
       10.389228018317   0.018871300922529
        3.849621072005   0.038532527740515
        1.388401188741    0.46305094876991
        0.496955043655    0.56500599531169
         0.16249161504   0.096713771818926

4 0
 s    5 1.00
       10.389228018317   0.096173629276308
        3.849621072005    0.10660531634684
        1.388401188741   -0.33089834130169
        0.496955043655    -0.6496800688702
         0.16249161504   -0.18463001807573
 s    5 1.00
       10.389228018317   0.073630541584408
        3.849621072005    0.12300997725073
        1.388401188741   -0.34343118342323
        0.496955043655   -0.10206354789477
         0.16249161504     1.1731714191581
 p    5 1.00
       10.389228018317  -0.057562550918086
        3.849621072005    -0.1784919811951
        1.388401188741   -0.35468525474322
        0.496955043655   -0.42655539522159
         0.16249161504    -0.2416879946641
 p    5 1.00
       10.389228018317  -0.021265755186923
        3.849621072005  -0.0049739296849897
        1.388401188741    -0.1779930881255
        0.496955043655    0.30108256988861
         0.16249161504    0.83447656856867
 d    5 1.00
       10.389228018317   0.018871300922529
        3.849621072005   0.038532527740515
        1.388401188741    0.46305094876991
        0.496955043655    0.56500599531169
         0.16249161504   0.096713771818926

[5d]
[7f]
[9g]
[core]
1 : 10
2 : 10
3 : 2
4 : 2

[MO]
 Sym= A
 Ene=               0
 Spin= Alpha
 Occup=    1.00000
   1    -2.4341123370359e-08
   2    9.0877432894374e-09
   3    3.3104693086537e-08
   4    -5.9998048824877e-09
   5    1.8594916868819e-09
   6    4.1423122404138e-09
   7    4.046054740407e-09
   8    -1.2455276690198e-09
   9    -2.8010003551693e-09
  10      0.44496397562308
  11     0.013444516132669
  12    -0.043908325004785
  13     -0.48359041066326
  14     0.030463953135067
  15     0.014003818488323
  16     0.003718482153301
  17    -0.012146486140756
  18    -0.015219538556567
  19    0.0084279735177714
  20    -1.5168277201065e-09
  21    -1.4231875362925e-09
  22    6.8075367429131e-11
  23    3.4006192483693e-10
  24    9.098588274223e-14
  25    1.6751447024528e-09
  26    8.0611542078842e-10
  27    2.3494588103808e-08
  28    -2.3951182639914e-08
  29    6.5550071616451e-09
  30    -6.0032228625508e-09
  31    1.8603487951469e-09
  32    4.1433039586602e-09
  33    4.0568290536743e-09
  34    -1.2484025094898e-09
  35    -2.8081278624689e-09
  36     -0.44496331036005
  37     -0.01343998724597
  38     0.043909962168538
  39       0.4835921644573
  40    -0.030470831011463
  41    -0.014003876584765
  42    -0.0037185193312445
  43      0.01214647370454
  44     0.015219557030251
  45    -0.0084279443649159
  46    -1.5160535473976e-09
  47    -1.4237091896752e-09
  48    6.6697794311748e-11
  49    3.4071425278294e-10
  50    1.294825662899e-13
  51    1.6751178733229e-09
  52    8.0720690369536e-10
  53    3.0348579210538e-08
  54    1.716613443202e-08
  55     -0.36868752746878
  56      0.11286831195547
  57      0.25581894506715
  58      0.08559512548397
  59    -0.026203711557966
  60    -0.059391365248842
  61    -1.2451581076145e-09
  62    -2.7853748304135e-08
  63    -1.3279393538005e-08
  64    1.9989916121235e-08
  65    4.7931011882401e-08
  66    3.0350680896671e-08
  67    1.7165900835997e-08
  68      0.36868764354637
  69        -0.11286834789
  70     -0.25581902522971
  71    -0.085595162118812
  72     0.026203722935347
  73     0.059391390526846
  74    -1.2445875537818e-09
  75    -2.785499055704e-08
  76    -1.3279898085719e-08
  77    1.9990493376972e-08
  78    4.7931672899285e-08
