[Molden Format]
made by pyscf v[2.8.0]
[Atoms] (AU)
Ni   1   18     1.97003948485908     1.97003948485908     1.97003948485908
Ni   2   18     9.85019742429539     9.85019742429539     9.85019742429539
O   3   6     5.91011845457723     5.91011845457723     5.91011845457723
O   4   6    13.79027639401354    13.79027639401354    13.79027639401354
[GTO]
1 0
 s    5 1.00
       10.077427756816   -0.16816538591041
        5.847735848326   -0.31203986825241
        2.494032826008    0.76231213094128
        0.988354848429    0.55437604679043
        0.344978242158    0.03155701098717
 s    5 1.00
       10.077427756816   0.058000950062097
        5.847735848326    0.14653254811322
        2.494032826008   -0.50777581008225
        0.988354848429    -1.0938070247199
        0.344978242158    0.66529670756055
 s    5 1.00
       10.077427756816  0.0053460448296085
        5.847735848326   -0.08418457883001
        2.494032826008  0.0015718453997724
        0.988354848429   -0.87757432617674
        0.344978242158     1.5777647329419
 p    5 1.00
       10.077427756816   -0.12236774170237
        5.847735848326    0.23342048133724
        2.494032826008    0.52638460167342
        0.988354848429    0.39425731817561
        0.344978242158   0.051608556148131
 p    5 1.00
       10.077427756816  -0.012616972687739
        5.847735848326  -0.025194607896872
        2.494032826008   -0.22268415555677
        0.988354848429   -0.22497484726751
        0.344978242158     1.1712751328261
 d    5 1.00
       10.077427756816    0.08918252306285
        5.847735848326    0.25567343360121
        2.494032826008     0.3554995300545
        0.988354848429    0.34934981895974
        0.344978242158    0.26737625455372
 d    5 1.00
       10.077427756816  -0.093993451492197
        5.847735848326   -0.36074197756838
        2.494032826008    -0.5570889903816
        0.988354848429   -0.15334190860524
        0.344978242158    0.42481173879085
 f    5 1.00
       10.077427756816  -0.0083683152125103
        5.847735848326    0.03763133075813
        2.494032826008   0.027363949027932
        0.988354848429    0.87387054931809
        0.344978242158    0.16755768848104

2 0
 s    5 1.00
       10.077427756816   -0.16816538591041
        5.847735848326   -0.31203986825241
        2.494032826008    0.76231213094128
        0.988354848429    0.55437604679043
        0.344978242158    0.03155701098717
 s    5 1.00
       10.077427756816   0.058000950062097
        5.847735848326    0.14653254811322
        2.494032826008   -0.50777581008225
        0.988354848429    -1.0938070247199
        0.344978242158    0.66529670756055
 s    5 1.00
       10.077427756816  0.0053460448296085
        5.847735848326   -0.08418457883001
        2.494032826008  0.0015718453997724
        0.988354848429   -0.87757432617674
        0.344978242158     1.5777647329419
 p    5 1.00
       10.077427756816   -0.12236774170237
        5.847735848326    0.23342048133724
        2.494032826008    0.52638460167342
        0.988354848429    0.39425731817561
        0.344978242158   0.051608556148131
 p    5 1.00
       10.077427756816  -0.012616972687739
        5.847735848326  -0.025194607896872
        2.494032826008   -0.22268415555677
        0.988354848429   -0.22497484726751
        0.344978242158     1.1712751328261
 d    5 1.00
       10.077427756816    0.08918252306285
        5.847735848326    0.25567343360121
        2.494032826008     0.3554995300545
        0.988354848429    0.34934981895974
        0.344978242158    0.26737625455372
 d    5 1.00
       10.077427756816  -0.093993451492197
        5.847735848326   -0.36074197756838
        2.494032826008    -0.5570889903816
        0.988354848429   -0.15334190860524
        0.344978242158    0.42481173879085
 f    5 1.00
       10.077427756816  -0.0083683152125103
        5.847735848326    0.03763133075813
        2.494032826008   0.027363949027932
        0.988354848429    0.87387054931809
        0.344978242158    0.16755768848104

3 0
 s    5 1.00
       10.389228018317   0.096173629276308
        3.849621072005    0.10660531634684
        1.388401188741   -0.33089834130169
        0.496955043655    -0.6496800688702
         0.16249161504   -0.18463001807573
 s    5 1.00
       10.389228018317   0.073630541584408
        3.849621072005    0.12300997725073
        1.388401188741   -0.34343118342323
        0.496955043655   -0.10206354789477
         0.16249161504     1.1731714191581
 p    5 1.00
       10.389228018317  -0.057562550918086
        3.849621072005    -0.1784919811951
        1.388401188741   -0.35468525474322
        0.496955043655   -0.42655539522159
         0.16249161504    -0.2416879946641
 p    5 1.00
       10.389228018317  -0.021265755186923
        3.849621072005  -0.0049739296849897
        1.388401188741    -0.1779930881255
        0.496955043655    0.30108256988861
         0.16249161504    0.83447656856867
 d    5 1.00
       10.389228018317   0.018871300922529
        3.849621072005   0.038532527740515
        1.388401188741    0.46305094876991
        0.496955043655    0.56500599531169
         0.16249161504   0.096713771818926

4 0
 s    5 1.00
       10.389228018317   0.096173629276308
        3.849621072005    0.10660531634684
        1.388401188741   -0.33089834130169
        0.496955043655    -0.6496800688702
         0.16249161504   -0.18463001807573
 s    5 1.00
       10.389228018317   0.073630541584408
        3.849621072005    0.12300997725073
        1.388401188741   -0.34343118342323
        0.496955043655   -0.10206354789477
         0.16249161504     1.1731714191581
 p    5 1.00
       10.389228018317  -0.057562550918086
        3.849621072005    -0.1784919811951
        1.388401188741   -0.35468525474322
        0.496955043655   -0.42655539522159
         0.16249161504    -0.2416879946641
 p    5 1.00
       10.389228018317  -0.021265755186923
        3.849621072005  -0.0049739296849897
        1.388401188741    -0.1779930881255
        0.496955043655    0.30108256988861
         0.16249161504    0.83447656856867
 d    5 1.00
       10.389228018317   0.018871300922529
        3.849621072005   0.038532527740515
        1.388401188741    0.46305094876991
        0.496955043655    0.56500599531169
         0.16249161504   0.096713771818926

[5d]
[7f]
[9g]
[core]
1 : 10
2 : 10
3 : 2
4 : 2

[MO]
 Sym= A
 Ene=               0
 Spin= Alpha
 Occup=    1.00000
   1    -2.6062189862572e-07
   2    2.261204525839e-07
   3    7.1250798964343e-08
   4    4.6907732744033e-10
   5    -7.2428166959331e-10
   6    2.5623680306871e-10
   7    -8.0241850940563e-10
   8    1.241101352828e-09
   9    -4.3833504285443e-10
  10     0.028444023215859
  11      0.55648456872606
  12     -0.35998464815665
  13     0.076586905527453
  14     -0.19649480008126
  15    -0.0021455051784625
  16    -0.0013105632948201
  17    0.00084765338393152
  18    -0.0057780030760154
  19    0.00046284696275616
  20    7.7270383949431e-11
  21    -5.2658648734649e-10
  22    2.2971501589559e-10
  23    -6.7800226665174e-10
  24    -3.0562230482781e-13
  25    -2.2894811003074e-10
  26    9.9717037189465e-11
  27    2.4941274685305e-07
  28    -2.1429041077735e-07
  29    -8.9078304522339e-08
  30    -4.7434573815357e-10
  31    7.3397000578286e-10
  32    -2.5951369530431e-10
  33    7.9789204308407e-10
  34    -1.2347902461668e-09
  35    4.3609889462064e-10
  36     0.028537841734034
  37      0.55699665238498
  38      -0.3603314337125
  39     0.076858586828601
  40     -0.19667147863307
  41    -0.0021425828492033
  42    -0.0013218806322689
  43    0.00085529615390336
  44    -0.0057693207237858
  45    0.0004666718879307
  46    -7.7530043578795e-11
  47    5.2659062444685e-10
  48    -2.2949332652483e-10
  49    6.7934555520283e-10
  50    6.0655451251982e-13
  51    2.2944471039515e-10
  52    -9.988473041723e-11
  53    5.4770531147775e-09
  54    4.814153157617e-09
  55    6.9026025150099e-05
  56    -0.00010508816296677
  57    3.2771577475993e-05
  58    -8.6315622267346e-06
  59    1.3175145009581e-05
  60    -4.0332422279257e-06
  61    3.2433423047783e-05
  62    -0.0080371643262972
  63    0.0051992787257396
  64    8.7338894220616e-05
  65    0.0028378937610239
  66    5.4725321908655e-09
  67    4.8109013437755e-09
  68    -6.9025969235981e-05
  69    0.00010508807779495
  70    -3.2771551292186e-05
  71    8.6315235739583e-06
  72    -1.3175086327563e-05
  73    4.0332224706437e-06
  74    3.2433347135498e-05
  75    -0.0080371630219235
  76    0.0051992778823201
  77    8.7338688151783e-05
  78    0.0028378933002723
 Sym= A
 Ene=               1
 Spin= Alpha
 Occup=    1.00000
   1    1.6445169684398e-07
   2    -1.4210581329139e-07
   3    -5.6785725916153e-08
   4    -5.6564248207914e-10
   5    -1.2258727245429e-10
   6    6.8930734093351e-10
   7    9.7057271298533e-10
   8    2.112200430076e-10
   9    -1.1811722311472e-09
  10     0.076585652278127
  11     0.094398853349211
  12      0.43472063181778
  13    -0.028436013516114
  14     -0.52912386869468
  15    -0.0057780594859208
  16    -0.00022238767443101
  17    -0.0010235417962151
  18     0.002145831882588
  19    0.0012459922776084
  20    2.0889398521642e-10
  21    -2.5943308158393e-10
  22    -5.4023463712505e-10
  23    2.5193443440498e-10
  24    -3.5915328000528e-13
  25    -4.1862197406602e-10
  26    4.6621244939836e-10
  27    -1.7245992900516e-07
  28    1.4911753559905e-07
  29    4.8171648630689e-08
  30    5.742341025867e-10
  31    1.2528288124024e-10
  32    -6.9918970725257e-10
  33    -9.6601811713647e-10
  34    -2.1064733726044e-10
  35    1.1756339916245e-09
  36     0.076859348020405
  37     0.094480739894131
  38       0.4351423947204
  39    -0.028545170220518
  40     -0.52962000815041
  41    -0.0057692687555348
  42    -0.0002241292152632
  43    -0.0010328898481488
  44     0.002142216208642
  45    0.0012569825674825
  46    -2.0952104779602e-10
  47    2.5979542056443e-10
  48    5.4048450680179e-10
  49    -2.5248530731125e-10
  50    1.0542877569907e-12
  51    4.1954161437435e-10
  52    -4.6723844586645e-10
  53    6.3352071278469e-09
  54    5.1612331164209e-09
  55    -8.5859844749042e-05
  56    -1.4241708624611e-05
  57    0.00010227401412082
  58    1.0777472134423e-05
  59    1.729656730058e-06
  60    -1.2844102594453e-05
  61    8.7334826176156e-05
  62    -0.0013633450238683
  63    -0.0062787200129279
  64    -3.2432121442344e-05
  65    0.0076420734428343
  66    6.3287531439922e-09
  67    5.156692375859e-09
  68    8.5859781381913e-05
  69    1.4241700020703e-05
  70    -0.0001022739349047
  71    -1.077742759297e-05
  72    -1.7296487005628e-06
  73    1.2844047951262e-05
  74    8.7334622716516e-05
  75    -0.0013633448020398
  76    -0.0062787189931823
  77    -3.2432045274418e-05
  78    0.0076420722014619
 Sym= A
 Ene=               2
 Spin= Alpha
 Occup=    1.00000
   1    -0.003484599039214
   2    0.0019416980350475
   3    0.00055917167550007
   4    -7.8021395066805e-10
   5    -7.7946523909389e-10
   6    -7.8072548573684e-10
   7    1.3633850893612e-09
   8    1.3623426911988e-09
   9    1.3650002666051e-09
  10    3.7645390386221e-06
  11     -0.40399110427867
  12     -0.40395045270192
  13    -1.2857709255957e-05
  14     -0.40397799246768
  15    7.3907500088517e-08
  16    -0.0021080244190107
  17    -0.0021089684315749
  18    -5.1706607108229e-07
  19    -0.0021082980028171
  20    -4.2728309212201e-10
  21    2.6143898882277e-10
  22    2.6161966623445e-10
  23    -1.1117492204917e-13
  24    6.2291381141678e-10
  25    -3.3817727205415e-10
  26    3.3822640313847e-10
  27    -0.0034630540509872
  28    0.0019230450653023
  29    0.00055190791379309
  30    7.8948375794569e-10
  31    7.8949932323176e-10
  32    7.9156330049241e-10
  33    -1.3634209347066e-09
  34    -1.3627724028374e-09
  35    -1.3660009828819e-09
  36    -2.4991130210185e-06
  37     -0.40414114644174
  38     -0.40418094153696
  39    1.4370110172502e-05
  40     -0.40415249570737
  41    -1.5847145289194e-07
  42    -0.002107430418235
  43    -0.0021064784979553
  44    4.2726809270191e-07
  45    -0.0021071328379598
  46    4.269850201312e-10
  47    -2.604838062025e-10
  48    -2.6060414970311e-10
  49    2.3189798606185e-13
  50    -6.2303449323412e-10
  51    3.3808865846291e-10
  52    -3.378670223152e-10
  53      0.01358541423027
  54     0.010542558746219
  55    -3.7652545368441e-05
  56    -5.5406167429792e-05
  57    -5.012153980254e-05
  58    5.8515860330646e-06
  59    8.0981369587025e-06
  60    7.432894898332e-06
  61    1.6196083486715e-09
  62    0.0063023423007231
  63    0.0063023372109278
  64    2.750364861492e-09
  65    0.0063023307417995
  66     0.013585418589105
  67     0.010542558916245
  68    3.7652444435483e-05
  69    5.5406057279457e-05
  70    5.0121435503607e-05
  71    -5.8515439827868e-06
  72    -8.0980932486903e-06
  73    -7.4328530109952e-06
  74    1.620052466107e-09
  75    0.0063023414058238
  76    0.0063023363158734
  77    2.7504877908259e-09
  78    0.0063023298462313
 Sym= A
 Ene=               3
 Spin= Alpha
 Occup=    1.00000
   1    -5.66432326783e-08
   2    1.5702240779077e-08
   3    -2.338320281867e-08
   4    2.576711689694e-09
   5    -4.8684395777348e-09
   6    2.2969138059421e-09
   7    -1.3773202709022e-09
   8    2.6095923912131e-09
   9    -1.2354958457586e-09
  10       0.1312391377328
  11      0.48594197510915
  12     -0.25588669913846
  13      0.24428495690718
  14     -0.23010159823193
  15    0.0043654787431336
  16    -0.011040165157604
  17    0.0058127368909526
  18    0.0081254171429508
  19     0.005227256002574
  20    -5.9360384675379e-10
  21    -1.4004814283832e-10
  22    -7.5058276228559e-10
  23    -7.1861300776064e-10
  24    -3.2939500327691e-13
  25    -9.5058847531606e-10
  26    -1.0092538505705e-09
  27    -2.1633365781077e-07
  28    1.319957292736e-07
  29    6.3146053442874e-08
  30    2.5748607625108e-09
  31    -4.8667302520251e-09
  32    2.2959343845083e-09
  33    -1.3745818030969e-09
  34    2.6044083103545e-09
  35    -1.2327182222604e-09
  36     -0.13121013878529
  37     -0.48537045701498
  38      0.25552968141972
  39     -0.24423762735725
  40      0.22979643419925
  41    -0.0043693487092056
  42     0.011038967201635
  43    -0.0058124325936709
  44    -0.0081334393459645
  45    -0.0052268852518445
  46    -5.9343537290375e-10
  47    -1.385463726098e-10
  48    -7.5130840494513e-10
  49    -7.1765704161983e-10
  50    -7.2650410682246e-13
  51    -9.5039079629271e-10
  52    -1.0095582446842e-09
  53    5.1506557384017e-07
  54    3.9494341325445e-07
  55     -0.10749761589878
  56        0.204167742162
  57    -0.096669268955721
  58     0.013442314277093
  59     -0.02553079027993
  60     0.012088283003664
  61    -1.4574540391448e-07
  62    -4.2017624807662e-06
  63    2.6582903571769e-06
  64    -3.9560770648666e-07
  65    2.2528890900634e-06
  66    5.1506385032439e-07
  67    3.9494343220377e-07
  68       0.1074975599147
  69     -0.20416763654002
  70      0.09666921920474
  71    -0.013442304474586
  72     0.025530771752928
  73    -0.012088274264904
  74    -1.4574502557665e-07
  75    -4.2017625274272e-06
  76    2.6582909711339e-06
  77    -3.9560574580231e-07
  78    2.2528889714256e-06
 Sym= A
 Ene=               4
 Spin= Alpha
 Occup=    1.00000
   1    1.4629360703145e-07
   2    -8.5505939747014e-08
   3    -3.0124257149979e-08
   4    -4.1238316102013e-09
   5    -1.3380514310634e-10
   6    4.2638734425381e-09
   7    2.2169711576094e-09
   8    7.6482726328899e-11
   9    -2.2975609002314e-09
  10      0.24428344988378
  11     0.014889103305444
  12      0.41343627275247
  13     -0.13123452804052
  14     -0.42828619594334
  15    0.0081252575095342
  16    -0.00033801168476521
  17    -0.0093917829483063
  18     -0.00436495758804
  19    0.0097300513530461
  20    -1.1016797220998e-09
  21    -9.9171325253168e-10
  22    -6.6498278480907e-10
  23    3.8622612344154e-10
  24    -3.3599840050367e-13
  25    5.7923328293841e-10
  26    4.7139798723701e-10
  27    9.2189629239652e-08
  28    -4.3682109960088e-08
  29    -3.9440145341443e-09
  30    -4.1231062040724e-09
  31    -1.3494733129626e-10
  32    4.2620372273596e-09
  33    2.2126979956978e-09
  34    7.6647371937353e-11
  35    -2.2920044552987e-09
  36     -0.24423853740892
  37     -0.01485509945985
  38     -0.41287335725941
  39      0.13121463411963
  40      0.42776832440673
  41    -0.0081335871671664
  42    0.00033804623385063
  43    0.0093912331350274
  44    0.0043699429885871
  45    -0.0097290871486209
  46    -1.101407792186e-09
  47    -9.915060101176e-10
  48    -6.6356864307486e-10
  49    3.8571844018006e-10
  50    -8.7138454734057e-13
  51    5.7961630512668e-10
  52    4.7100348726719e-10
  53    -4.4870987471503e-07
  54    -3.4440737541482e-07
  55      0.17368853082488
  56    0.0062516392153004
  57      -0.1799398670329
  58    -0.021719428964186
  59    -0.00078174327088468
  60     0.022501106954154
  61    -4.4203081783806e-07
  62    -2.4583744286306e-07
  63    -4.197832252699e-06
  64    3.1709550813518e-07
  65    3.8256100931878e-06
  66    -4.4871313048541e-07
  67    -3.4440731233787e-07
  68     -0.17368844148836
  69    -0.0062516364120818
  70      0.17993977475982
  71     0.021719413269188
  72    0.00078174275870986
  73    -0.022501090730599
  74    -4.4203018672284e-07
  75    -2.4583668592433e-07
  76    -4.1978317534223e-06
  77    3.1709449665439e-07
  78    3.8256098283509e-06
 Sym= A
 Ene=               5
 Spin= Alpha
 Occup=    1.00000
   1     0.042916718419877
   2    -0.037182414523197
   3     -0.01440451231546
   4    -1.3655185225106e-08
   5    -1.3650691428017e-08
   6    -1.3670894254735e-08
   7    9.5168744034127e-09
   8    9.5144208887487e-09
   9    9.5251311173048e-09
  10    -2.3563772364513e-07
  11     -0.36386837232613
  12     -0.36387413872952
  13    3.3084608646455e-07
  14     -0.36386955359904
  15    -6.4540202194107e-08
  16    0.0029980007888031
  17    0.0029979694897139
  18    -1.4766859265167e-07
  19      0.00299798285083
  20    2.8444932115402e-09
  21    -1.7390063658424e-09
  22    -1.7381345828801e-09
  23    -6.44848542393e-14
  24    3.410914533743e-11
  25    2.2449924802853e-09
  26    -2.2439717670977e-09
  27    -0.042918417695952
  28     0.037183428838343
  29     0.014404685475438
  30    -1.3655574651574e-08
  31    -1.3651036348363e-08
  32    -1.3671752941439e-08
  33    9.5044996435798e-09
  34    9.5021658918248e-09
  35    9.5107439706972e-09
  36    -4.8223674619065e-08
  37       0.3636690646982
  38      0.36366244493977
  39    4.6388290670051e-07
  40      0.36366652528977
  41    9.6072409253359e-08
  42    -0.0029989191501323
  43    -0.0029989224943728
  44    2.8264015997081e-08
  45    -0.0029989121498255
  46    2.8444584081915e-09
  47    -1.7397938539098e-09
  48    -1.7389328004766e-09
  49    -9.0968617306322e-14
  50    3.4470344246344e-11
  51    2.2450531935027e-09
  52    -2.2440889629763e-09
  53    3.3501649236575e-06
  54    2.6449737310463e-06
  55      0.18984989347978
  56      0.18984868586598
  57      0.18985022705692
  58    -0.028465761986622
  59    -0.028465554343524
  60    -0.028465815786487
  61    7.6209794616785e-10
  62    1.5391427708986e-06
  63    1.6335972017597e-06
  64    -5.6635105551705e-09
  65    1.5676893000058e-06
  66    3.3502072823797e-06
  67    2.6449514271125e-06
  68     -0.18984956459794
  69     -0.18984835709052
  70     -0.18984989779386
  71      0.02846570216967
  72     0.028465494546006
  73     0.028465755900094
  74    7.6340445697456e-10
  75    1.5391434791257e-06
  76    1.6335978574697e-06
  77    -5.6634333021798e-09
  78    1.5676893100141e-06
 Sym= A
 Ene=               6
 Spin= Alpha
 Occup=    1.00000
   1    -5.2290240583739e-08
   2    -1.582843735188e-08
   3    7.6176827926316e-08
   4    4.7465900037157e-12
   5    9.4350239221019e-10
   6    -9.5000385605792e-10
   7    -2.5490233276375e-11
   8    -2.3190597365981e-09
   9    2.3451137515449e-09
  10     -0.63524376156617
  11     0.065670750304214
  12    0.00029669121934875
  13     -0.36344220187626
  14    -0.065969235323682
  15     -0.04575996685199
  16     0.011301006288913
  17    5.1255445825476e-05
  18    -0.026179983182813
  19    -0.011352549962877
  20    7.2414556510576e-10
  21    3.2890768445687e-10
  22    6.0413875475391e-10
  23    2.0369582696347e-10
  24    2.4388659377793e-14
  25    2.4611543335892e-10
  26    4.4165860231667e-10
  27    -5.5163511413562e-08
  28    -1.9336733646976e-08
  29    7.2358507268347e-08
  30    -4.6410661366844e-12
  31    -9.4614616734895e-10
  32    9.5194501767921e-10
  33    2.5461394066832e-11
  34    2.3161755829775e-09
  35    -2.341335084781e-09
  36     -0.63567544609698
  37     0.065746198695589
  38    0.00030192038934846
  39     -0.36365764931817
  40    -0.066050175698652
  41    -0.045773783051059
  42     0.011308106486846
  43    5.1764457626363e-05
  44    -0.026186984098189
  45    -0.011360169733677
  46    -7.2331498872452e-10
  47    -3.2953369022537e-10
  48    -6.0468736818852e-10
  49    -2.0341039102359e-10
  50    1.0475807298344e-13
  51    -2.4640413382315e-10
  52    -4.4177893994188e-10
  53    1.2346351460822e-07
  54    5.7197556522262e-08
  55    -9.8863188421493e-06
  56    -0.00013181850945557
  57    0.00014165081866893
  58    2.2147936073747e-06
  59    2.9581427979723e-05
  60    -3.1791445230216e-05
  61    -0.018643261546417
  62    -0.0053880372264565
  63    -2.45622168683e-05
  64    -0.010665912361974
  65    0.0054126863903713
  66    1.2345851523257e-07
  67    5.7198580641307e-08
  68    9.8863180972721e-06
  69    0.00013181851213392
  70    -0.00014165084001998
  71    -2.2147942258899e-06
  72    -2.958145008722e-05
  73    3.1791469715778e-05
  74    -0.018643258767415
  75    -0.005388037065735
  76    -2.456221232044e-05
  77    -0.010665910789489
  78    0.0054126862156733
 Sym= A
 Ene=               7
 Spin= Alpha
 Occup=    1.00000
   1    -7.7688478809412e-09
   2    -3.2996025399453e-09
   3    2.9349550535557e-08
   4    -1.0913628738209e-09
   5    5.4880632290934e-10
   6    5.4303446184598e-10
   7    2.6841539543944e-09
   8    -1.3381279686935e-09
   9    -1.3459132602333e-09
  10      0.36335775580989
  11     0.038253895948162
  12    -0.075982399054243
  13     -0.63516550094325
  14     0.037727946547735
  15     0.026177513870056
  16    0.0065835070374535
  17    -0.013077122145521
  18    -0.045757691901526
  19    0.0064935097637911
  20    -4.1517387945587e-10
  21    -5.0818966714676e-10
  22    -2.5947882261229e-11
  23    3.5621429708336e-10
  24    -1.2875980439758e-14
  25    6.5802176600879e-10
  26    5.4600205214636e-10
  27    -2.8914019298584e-08
  28    -1.1041820322043e-08
  29    2.7158681578495e-08
  30    1.0968163901617e-09
  31    -5.5155256096364e-10
  32    -5.4539425625364e-10
  33    -2.6822977584277e-09
  34    1.3372056155921e-09
  35    1.344554587162e-09
  36      0.36374210762073
  37     0.038312893619985
  38    -0.076112535473489
  39     -0.63575366452119
  40     0.037798901589706
  41     0.026189451855732
  42    0.0065891029959969
  43    -0.013089442651055
  44    -0.045776082569103
  45    0.0065002584299509
  46    4.1517900413483e-10
  47    5.0891598403277e-10
  48    2.627230036599e-11
  49    -3.5583400587903e-10
  50    -5.2024011543294e-14
  51    -6.5898978047222e-10
  52    -5.4687286145378e-10
  53    4.431014249162e-08
  54    2.0668488027837e-08
  55    0.0002313633636179
  56    -0.00010458719719548
  57    -0.00012686890769636
  58    -5.1939976157447e-05
  59    2.3472383801369e-05
  60    2.8484936614903e-05
  61     0.010665911020451
  62    -0.0031391886529914
  63     0.006235800194171
  64    -0.018643262544495
  65    -0.0030965830070623
  66    4.431259331113e-08
  67    2.0668457615747e-08
  68    -0.00023136339145635
  69    0.00010458721010687
  70    0.00012686893188139
  71    5.194000909971e-05
  72    -2.3472399515382e-05
  73    -2.8484954653901e-05
  74     0.010665909425716
  75    -0.0031391885623994
  76    0.0062358000051423
  77    -0.018643259787509
  78    -0.0030965829057334
 Sym= A
 Ene=               8
 Spin= Alpha
 Occup=    1.00000
   1    1.206361880436e-08
   2    -2.9196471433058e-08
   3    1.5457335743787e-08
   4    9.256591411306e-11
   5    4.9052068985307e-09
   6    -5.0002211783717e-09
   7    -7.2350578517236e-11
   8    -3.3596056819543e-09
   9    3.4320177905277e-09
  10     -0.55594876663719
  11     0.077048825983074
  12    0.0018257998406852
  13     -0.30610773737466
  14     -0.07887581707106
  15     -0.01746667502779
  16    0.0098286066490916
  17    0.0002330187060324
  18    -0.0096159498823417
  19    -0.010061793440834
  20    1.8726059590388e-09
  21    3.290270157966e-10
  22    1.2825502210861e-09
  23    1.8815911017793e-10
  24    -2.3197270271552e-13
  25    2.0860894094532e-10
  26    1.3298051618404e-09
  27    -8.720966756353e-09
  28    2.5083286673422e-08
  29    -7.5216325518504e-09
  30    9.2669961730542e-11
  31    4.9077311195465e-09
  32    -5.0008287799444e-09
  33    -7.279982566851e-11
  34    -3.3679668568636e-09
  35    3.4398305727767e-09
  36      0.55542516985674
  37    -0.076999805457356
  38    -0.0018187054296108
  39      0.30588038439764
  40     0.078819689848026
  41     0.017429255498584
  42    -0.0098204757134701
  43    -0.00023184540335413
  44    0.0095998189811763
  45     0.010052502892615
  46    1.8710404565805e-09
  47    3.303014773477e-10
  48    1.2831029994578e-09
  49    1.8847542329007e-10
  50    -3.4335944679864e-13
  51    2.0949452127696e-10
  52     1.32918374134e-09
  53    5.4572496696429e-09
  54    2.1523728884654e-09
  55    0.0080642527345371
  56      0.34080084759446
  57     -0.34886464985275
  58    -0.0018313132117515
  59    -0.077393664386905
  60     0.079224964393863
  61    -7.643230958368e-06
  62    -1.9481445142615e-06
  63    -2.8047075523109e-07
  64    -3.3088957313215e-06
  65    2.2277503963296e-06
  66    5.4540273463044e-09
  67    2.1527591941399e-09
  68    -0.0080642545672399
  69     -0.34080094158786
  70      0.34886474569261
  71    0.0018313137649714
  72     0.077393695219264
  73    -0.079224995815419
  74    -7.6432304397343e-06
  75    -1.9481436344684e-06
  76    -2.8046921454301e-07
  77    -3.3088947009848e-06
  78    2.2277496034664e-06
 Sym= A
 Ene=               9
 Spin= Alpha
 Occup=    1.00000
   1    3.4619380609622e-09
   2    -2.0139277571102e-08
   3    2.8999171895513e-08
   4    -5.7314693842574e-09
   5    2.9861955051933e-09
   6    2.746328316601e-09
   7    3.9256479662749e-09
   8    -2.0378555772008e-09
   9    -1.8879989039122e-09
  10      0.30620957769352
  11     0.046596053403955
  12    -0.090037453715301
  13      -0.5560400696882
  14     0.043440826172909
  15    0.0096234816172235
  16    0.0059441984034803
  17     -0.01148609710994
  18    -0.017473441226041
  19     0.005541829969852
  20    -1.0291320502389e-09
  21    -1.3065858087933e-09
  22    4.2108614309649e-10
  23    3.4093861826671e-10
  24    5.4431666985557e-14
  25    1.7020185272755e-09
  26    1.0861656158604e-09
  27    -3.7323145012824e-09
  28    3.4310380020966e-09
  29    1.3517472011408e-08
  30    -5.7337815270681e-09
  31    2.9873979308856e-09
  32    2.7464574929343e-09
  33    3.9339559367409e-09
  34    -2.0419699701407e-09
  35    -1.8917239294071e-09
  36       -0.305778572049
  37    -0.046553488134629
  38      0.08994806886748
  39      0.55533385845495
  40    -0.043394300394599
  41    -0.0095922859100363
  42    -0.0059371451276174
  43     0.011471294961254
  44     0.017422513295725
  45    -0.0055341014554825
  46    -1.0281144136834e-09
  47    -1.3061333325699e-09
  48    4.1986729225515e-10
  49    3.4134703806936e-10
  50    1.0792707774655e-13
  51    1.7014958640294e-09
  52    1.0866096445284e-09
  53    3.0968664697167e-08
  54    1.6426755573354e-08
  55     -0.39817844619964
  56      0.20607305066472
  57      0.19210556707217
  58     0.090423790111528
  59    -0.046797847268326
  60    -0.043625947059115
  61    6.3381018791952e-06
  62    -1.6928162202342e-06
  63    3.5511463471909e-06
  64    -1.0359672116283e-05
  65    -1.8547647256471e-06
  66    3.0970269378605e-08
  67    1.6426602732365e-08
  68      0.39817855601458
  69     -0.20607310783242
  70     -0.19210561972715
  71    -0.090423826142641
  72     0.046797866062226
  73     0.043625964307613
  74    6.3381013240269e-06
  75    -1.6928173457657e-06
  76    3.5511461342188e-06
  77    -1.0359669697525e-05
  78    -1.8547641715322e-06
