[Molden Format]
made by pyscf v[2.8.0]
[Atoms] (AU)
Ni   1   18     1.97003948485908     1.97003948485908     1.97003948485908
Ni   2   18     9.85019742429539     9.85019742429539     9.85019742429539
O   3   6     5.91011845457723     5.91011845457723     5.91011845457723
O   4   6    13.79027639401354    13.79027639401354    13.79027639401354
[GTO]
1 0
 s    5 1.00
       10.077427756816   -0.16816538591041
        5.847735848326   -0.31203986825241
        2.494032826008    0.76231213094128
        0.988354848429    0.55437604679043
        0.344978242158    0.03155701098717
 s    5 1.00
       10.077427756816   0.058000950062097
        5.847735848326    0.14653254811322
        2.494032826008   -0.50777581008225
        0.988354848429    -1.0938070247199
        0.344978242158    0.66529670756055
 s    5 1.00
       10.077427756816  0.0053460448296085
        5.847735848326   -0.08418457883001
        2.494032826008  0.0015718453997724
        0.988354848429   -0.87757432617674
        0.344978242158     1.5777647329419
 p    5 1.00
       10.077427756816   -0.12236774170237
        5.847735848326    0.23342048133724
        2.494032826008    0.52638460167342
        0.988354848429    0.39425731817561
        0.344978242158   0.051608556148131
 p    5 1.00
       10.077427756816  -0.012616972687739
        5.847735848326  -0.025194607896872
        2.494032826008   -0.22268415555677
        0.988354848429   -0.22497484726751
        0.344978242158     1.1712751328261
 d    5 1.00
       10.077427756816    0.08918252306285
        5.847735848326    0.25567343360121
        2.494032826008     0.3554995300545
        0.988354848429    0.34934981895974
        0.344978242158    0.26737625455372
 d    5 1.00
       10.077427756816  -0.093993451492197
        5.847735848326   -0.36074197756838
        2.494032826008    -0.5570889903816
        0.988354848429   -0.15334190860524
        0.344978242158    0.42481173879085
 f    5 1.00
       10.077427756816  -0.0083683152125103
        5.847735848326    0.03763133075813
        2.494032826008   0.027363949027932
        0.988354848429    0.87387054931809
        0.344978242158    0.16755768848104

2 0
 s    5 1.00
       10.077427756816   -0.16816538591041
        5.847735848326   -0.31203986825241
        2.494032826008    0.76231213094128
        0.988354848429    0.55437604679043
        0.344978242158    0.03155701098717
 s    5 1.00
       10.077427756816   0.058000950062097
        5.847735848326    0.14653254811322
        2.494032826008   -0.50777581008225
        0.988354848429    -1.0938070247199
        0.344978242158    0.66529670756055
 s    5 1.00
       10.077427756816  0.0053460448296085
        5.847735848326   -0.08418457883001
        2.494032826008  0.0015718453997724
        0.988354848429   -0.87757432617674
        0.344978242158     1.5777647329419
 p    5 1.00
       10.077427756816   -0.12236774170237
        5.847735848326    0.23342048133724
        2.494032826008    0.52638460167342
        0.988354848429    0.39425731817561
        0.344978242158   0.051608556148131
 p    5 1.00
       10.077427756816  -0.012616972687739
        5.847735848326  -0.025194607896872
        2.494032826008   -0.22268415555677
        0.988354848429   -0.22497484726751
        0.344978242158     1.1712751328261
 d    5 1.00
       10.077427756816    0.08918252306285
        5.847735848326    0.25567343360121
        2.494032826008     0.3554995300545
        0.988354848429    0.34934981895974
        0.344978242158    0.26737625455372
 d    5 1.00
       10.077427756816  -0.093993451492197
        5.847735848326   -0.36074197756838
        2.494032826008    -0.5570889903816
        0.988354848429   -0.15334190860524
        0.344978242158    0.42481173879085
 f    5 1.00
       10.077427756816  -0.0083683152125103
        5.847735848326    0.03763133075813
        2.494032826008   0.027363949027932
        0.988354848429    0.87387054931809
        0.344978242158    0.16755768848104

3 0
 s    5 1.00
       10.389228018317   0.096173629276308
        3.849621072005    0.10660531634684
        1.388401188741   -0.33089834130169
        0.496955043655    -0.6496800688702
         0.16249161504   -0.18463001807573
 s    5 1.00
       10.389228018317   0.073630541584408
        3.849621072005    0.12300997725073
        1.388401188741   -0.34343118342323
        0.496955043655   -0.10206354789477
         0.16249161504     1.1731714191581
 p    5 1.00
       10.389228018317  -0.057562550918086
        3.849621072005    -0.1784919811951
        1.388401188741   -0.35468525474322
        0.496955043655   -0.42655539522159
         0.16249161504    -0.2416879946641
 p    5 1.00
       10.389228018317  -0.021265755186923
        3.849621072005  -0.0049739296849897
        1.388401188741    -0.1779930881255
        0.496955043655    0.30108256988861
         0.16249161504    0.83447656856867
 d    5 1.00
       10.389228018317   0.018871300922529
        3.849621072005   0.038532527740515
        1.388401188741    0.46305094876991
        0.496955043655    0.56500599531169
         0.16249161504   0.096713771818926

4 0
 s    5 1.00
       10.389228018317   0.096173629276308
        3.849621072005    0.10660531634684
        1.388401188741   -0.33089834130169
        0.496955043655    -0.6496800688702
         0.16249161504   -0.18463001807573
 s    5 1.00
       10.389228018317   0.073630541584408
        3.849621072005    0.12300997725073
        1.388401188741   -0.34343118342323
        0.496955043655   -0.10206354789477
         0.16249161504     1.1731714191581
 p    5 1.00
       10.389228018317  -0.057562550918086
        3.849621072005    -0.1784919811951
        1.388401188741   -0.35468525474322
        0.496955043655   -0.42655539522159
         0.16249161504    -0.2416879946641
 p    5 1.00
       10.389228018317  -0.021265755186923
        3.849621072005  -0.0049739296849897
        1.388401188741    -0.1779930881255
        0.496955043655    0.30108256988861
         0.16249161504    0.83447656856867
 d    5 1.00
       10.389228018317   0.018871300922529
        3.849621072005   0.038532527740515
        1.388401188741    0.46305094876991
        0.496955043655    0.56500599531169
         0.16249161504   0.096713771818926

[5d]
[7f]
[9g]
[core]
1 : 10
2 : 10
3 : 2
4 : 2

[MO]
 Sym= A
 Ene=               0
 Spin= Alpha
 Occup=    1.00000
   1      0.64167626792453
   2    -0.067851923930748
   3     0.020445389422822
   4    -9.4982804400691e-10
   5    -9.5040678122555e-10
   6    -9.4902406544378e-10
   7    -5.7269108226896e-11
   8    -5.730172620785e-11
   9    -5.7185560392773e-11
  10    -2.4864118494426e-09
  11    -0.0005715961319697
  12    -0.0005716053432255
  13    1.3407212370125e-08
  14    -0.00057160671549915
  15    3.8321029630532e-09
  16    0.00073379652560949
  17    0.00073380648751469
  18    -1.6697555103837e-08
  19    0.00073380798073272
  20    -1.2781020748571e-11
  21    7.7507942898554e-12
  22    7.7689957795319e-12
  23    -2.3482803101698e-14
  24    6.1137284943872e-12
  25    -1.0145284676568e-11
  26    1.0130416216974e-11
  27      0.63331931517279
  28     -0.06697711442105
  29     0.020182489501976
  30    9.3809534957329e-10
  31    9.3897636873951e-10
  32    9.3256384424587e-10
  33    5.2328170421778e-11
  34    5.2346889867987e-11
  35    5.2428143307977e-11
  36    2.8475407106294e-09
  37    -0.00059219281608769
  38    -0.00059219686286938
  39    -9.7226642051332e-09
  40    -0.00059220223408096
  41    -3.169994123668e-09
  42    0.00069879864157475
  43    0.00069880313660647
  44    1.3073144555694e-08
  45    0.00069880888155454
  46    1.0662249820705e-11
  47    -6.4592044209919e-12
  48    -6.4769363393055e-12
  49    2.3151517372299e-14
  50    -6.0294600943186e-12
  51    8.4706583600587e-12
  52    -8.4559920150066e-12
  53    7.0432496330454e-05
  54    0.0060238630941872
  55    4.4725741893006e-07
  56    4.4762664078416e-07
  57    4.4753149818049e-07
  58    2.4118486554168e-05
  59    2.4114334693359e-05
  60    2.4115573189098e-05
  61    -3.5207059919601e-10
  62    -5.8610581073385e-06
  63    -5.8602598735953e-06
  64    -2.3182475954616e-10
  65    -5.8598895788903e-06
  66    7.0432579210889e-05
  67    0.0060238632000867
  68    -4.4726126270366e-07
  69    -4.4763047966673e-07
  70    -4.475353843781e-07
  71    -2.411850352141e-05
  72    -2.4114351665118e-05
  73    -2.4115590094542e-05
  74    -3.525121971542e-10
  75    -5.8610640630117e-06
  76    -5.8602659932247e-06
  77    -2.3195798054274e-10
  78    -5.8598961380404e-06
 Sym= A
 Ene=               1
 Spin= Alpha
 Occup=    1.00000
   1     -0.63351855023473
   2     0.066313466486151
   3    -0.019930956058429
   4    9.343211710279e-10
   5    9.3489804706328e-10
   6    9.3352279280087e-10
   7    4.7854478775787e-11
   8    4.7879834361604e-11
   9    4.7799022567441e-11
  10    3.0852547399073e-09
  11    -0.001575270362858
  12    -0.0015752614728071
  13    -1.3210957292436e-08
  14    -0.0015752601377726
  15    -3.7942099363228e-09
  16    -0.0026658482383053
  17    -0.0026658585385374
  18    1.5373360834051e-08
  19    -0.0026658600459351
  20    8.6873705420002e-12
  21    -5.2442877484188e-12
  22    -5.2692627875744e-12
  23    2.6042756052128e-14
  24    -6.6147947077085e-12
  25    6.926163455166e-12
  26    -6.9159144538935e-12
  27       0.6418728768573
  28    -0.067196937659137
  29      0.02019720755793
  30    9.4762433542944e-10
  31    9.4852348197001e-10
  32    9.4199996193472e-10
  33    4.5221232635616e-11
  34    4.5232701844214e-11
  35    4.5346555426867e-11
  36    2.6948880303067e-09
  37    0.0015676447312037
  38    0.0015676404304676
  39    -1.1400236489377e-08
  40    0.0015676352961459
  41    -2.7007656775788e-09
  42    0.0026752371957466
  43    0.0026752417407183
  44    1.2234282454376e-08
  45    0.0026752479198707
  46    8.5696452732814e-12
  47    -5.1819899665376e-12
  48    -5.2071657227249e-12
  49    2.6272114126924e-14
  50    -6.5767906537648e-12
  51    6.8394256578133e-12
  52    -6.8293518506576e-12
  53    4.6002983197203e-07
  54    3.9464842787156e-05
  55    -6.8225077165843e-05
  56    -6.8225551043314e-05
  57    -6.8225025136712e-05
  58    -0.0036800189926968
  59    -0.003680019851406
  60    -0.0036800178707472
  61    2.5642284403089e-10
  62    -3.810431845964e-08
  63    -3.8734996456267e-08
  64    -1.1288828502883e-09
  65    -3.8259490063344e-08
  66    4.6002766798247e-07
  67    3.9464834845091e-05
  68    6.8225089561259e-05
  69    6.8225563403759e-05
  70    6.8225037606084e-05
  71    0.0036800189837825
  72      0.00368001984273
  73    0.0036800178613199
  74    2.5644125234333e-10
  75    -3.8103768810973e-08
  76    -3.8734447745142e-08
  77    -1.128881470471e-09
  78    -3.8258938358548e-08
 Sym= A
 Ene=               2
 Spin= Alpha
 Occup=    1.00000
   1    3.0177608004202e-13
   2    -1.4815385876745e-13
   3    9.8356763782962e-14
   4     -0.39321871559157
   5      0.56383683242968
   6     -0.17063773610828
   7    0.0035937161626072
   8    -0.0051529978729997
   9    0.0015594940624149
  10    2.0540589177129e-10
  11    3.9309188744835e-10
  12    -2.7382691281413e-10
  13    6.667226403585e-10
  14    -1.1887062852243e-10
  15    2.2231553812171e-11
  16    -2.7084291939862e-11
  17    1.9051042862547e-11
  18    7.0354277865415e-11
  19    8.0687949165729e-12
  20    0.00069888209860141
  21    -0.0013190595552538
  22    0.0015150132743753
  23    -0.00054857635984522
  24    1.3427123559859e-08
  25     0.001015416092173
  26    0.0017475549974687
  27    1.571670766459e-12
  28    -2.9352363143516e-13
  29    9.780484684675e-14
  30        0.393003119535
  31     -0.56355564321013
  32      0.17054880516111
  33    -0.0035914352567445
  34    0.0051499949658082
  35    -0.0015585665884807
  36    2.0763407232721e-10
  37    3.8962430187885e-10
  38    -2.7069166314627e-10
  39    6.7546547289116e-10
  40    -1.1805969817727e-10
  41    2.4523566712347e-11
  42    -2.9300011587884e-11
  43    2.0390764823932e-11
  44    7.7503484690088e-11
  45    8.8106047336973e-12
  46    -0.00069842098685338
  47    0.0013182234463212
  48    -0.0015140713482417
  49    0.00054832331375992
  50    -1.6521812095523e-09
  51    -0.0010146415639458
  52    -0.0017464141581433
  53    -3.757887611245e-08
  54    3.6860584626346e-08
  55    -6.8167052744739e-07
  56    8.9842614384276e-07
  57    -2.6839278400897e-07
  58    9.5479772313094e-07
  59    -1.2772425022857e-06
  60    3.8673152753808e-07
  61    0.00093285639257762
  62    -0.00035284096289117
  63    0.00024605673654512
  64    0.0030208081769481
  65    0.00010677451933719
  66    3.7578040093241e-08
  67    -3.6860020659662e-08
  68    -6.8167201576541e-07
  69    8.9842829823104e-07
  70    -2.6839341770207e-07
  71    9.5478767890466e-07
  72    -1.2772281183473e-06
  73    3.8672728240332e-07
  74    -0.00093285638947624
  75    0.00035284098186185
  76    -0.00024605674980205
  77    -0.003020808167534
  78    -0.00010677452530401
 Sym= A
 Ene=               3
 Spin= Alpha
 Occup=    1.00000
   1    -2.3282680717264e-13
   2    2.2996942656528e-13
   3    -1.9676912634317e-13
   4     -0.42405815513114
   5     -0.12850171629735
   6      0.55255580907148
   7    0.0038755508905063
   8    0.0011743898687802
   9    -0.0050499192867367
  10    -6.6356096053059e-10
  11    -8.996573114926e-11
  12    -2.9619669897788e-10
  13    2.053983610705e-10
  14    3.8572175436216e-10
  15    -7.3399196627779e-11
  16    5.7925288719825e-12
  17    1.9786296594986e-11
  18    2.2170909291221e-11
  19    -2.5595045872206e-11
  20    -0.0022631083797596
  21    -0.00075497160843432
  22    0.00012025066880715
  23    -0.00016939598816367
  24    -1.1292314184217e-09
  25    0.0016121331384851
  26    -0.00075887065912332
  27    -3.5820420791247e-12
  28    5.9933700646358e-13
  29    -1.8454271579358e-13
  30      0.42382442280737
  31      0.12843762494764
  32     -0.55227183692861
  33    -0.0038730708578958
  34    -0.001173718628966
  35    0.0050468899847618
  36    -6.7059827398694e-10
  37    -9.0445604924231e-11
  38    -2.9472098582158e-10
  39    2.0804004333137e-10
  40    3.8331779930923e-10
  41    -8.0818160301052e-11
  42    6.6770782561252e-12
  43    2.180074459356e-11
  44    2.436062007156e-11
  45    -2.8133726021356e-11
  46    0.0022616170401805
  47    0.00075435621250378
  48    -0.0001202482995585
  49    0.00016933610700834
  50    8.2938208559961e-09
  51    -0.0016110678461975
  52    0.00075844591228024
  53    1.3807512282567e-08
  54    -1.3446949340657e-08
  55    -7.425943958285e-07
  56    -1.9636541368062e-07
  57    9.0826282344349e-07
  58    1.0408721579119e-06
  59    2.8080261968354e-07
  60    -1.2839488990013e-06
  61    -0.0030208067654412
  62    8.0415527445566e-05
  63    0.00026536124522465
  64    0.00093285603960458
  65    -0.00034577341366587
  66    -1.3806231664152e-08
  67    1.3446065952504e-08
  68    -7.4259602574168e-07
  69    -1.9636592041818e-07
  70    9.0826487613268e-07
  71    1.040861384492e-06
  72    2.8079937175338e-07
  73    -1.2839351563463e-06
  74    0.0030208067548512
  75    -8.0415531942679e-05
  76    -0.00026536125987473
  77    -0.00093285603652717
  78    0.00034577343323404
 Sym= A
 Ene=               4
 Spin= Alpha
 Occup=    1.00000
   1    1.7407563940862e-09
   2    -1.0000597345486e-11
   3    -4.0668571241767e-10
   4      0.40830867062171
   5      0.40823030760268
   6      0.40824907003188
   7    -0.0054044836863005
   8    -0.0054036425427861
   9    -0.0054038541169406
  10    -1.089600167719e-12
  11    -5.3138247462691e-10
  12    -5.3134911834783e-10
  13    -2.6877258546249e-13
  14    -5.3132415586951e-10
  15    -3.0050715459445e-13
  16    3.5752574481894e-11
  17    3.5461702254393e-11
  18    -1.2948491628691e-13
  19    3.4719097613667e-11
  20    -0.0016332546346816
  21    0.0010003550152609
  22     0.001000061172508
  23    4.8249747638915e-08
  24    -0.00034247142343252
  25    -0.0012914388713397
  26    0.0012911310351541
  27    1.7473001030071e-09
  28    8.9113773726359e-13
  29    -4.2562721370468e-10
  30     -0.40792108857945
  31     -0.40801054574396
  32     -0.40797904970265
  33    0.0054010221094659
  34    0.0054019580109191
  35    0.0054016377520445
  36    7.1583941763149e-14
  37    -5.2467157339802e-10
  38    -5.2483413328753e-10
  39    -7.4725264324501e-14
  40    -5.2575375699892e-10
  41    -5.7540992792027e-13
  42    4.0896335712898e-11
  43    4.0648559482067e-11
  44    -1.1728677809551e-13
  45    4.023333638374e-11
  46    0.0016320870438286
  47    -0.00099924056520212
  48    -0.00099956171708932
  49    5.2894574186929e-08
  50    0.00034216388995605
  51    0.0012900503438081
  52    -0.0012903700074741
  53    0.0058550516067587
  54    -0.0057234214411264
  55    9.4390927624631e-07
  56    4.088683427038e-07
  57    5.6860963761538e-07
  58    -1.2330423498294e-06
  59    -4.8183532825328e-07
  60    -7.063140566002e-07
  61    1.1552079718342e-08
  62    0.00042238257021164
  63    0.00042238627608003
  64    1.5782887193156e-08
  65    0.00042238670991812
  66    -0.0058550511446947
  67    0.0057234216271283
  68    9.4391199101999e-07
  69    4.0887109793849e-07
  70    5.6861228828232e-07
  71    -1.2330325820779e-06
  72    -4.8182553999259e-07
  73    -7.0630431551117e-07
  74    -1.1552646909072e-08
  75    -0.00042238259226039
  76    -0.00042238629841558
  77    -1.5783049244206e-08
  78    -0.00042238673304042
 Sym= A
 Ene=               5
 Spin= Alpha
 Occup=    1.00000
   1    5.2223429687319e-13
   2    -1.2327377345065e-13
   3    2.0967070038922e-14
   4     -0.37323213625882
   5       0.5686775316423
   6     -0.19536210464999
   7    0.0039299371802325
   8    -0.0059880639809652
   9    0.0020570118251037
  10    2.6496044928274e-10
  11    4.0973230964472e-10
  12    -2.6831912810671e-10
  13    7.3971510764929e-10
  14    -1.4073841805562e-10
  15    4.2444359724994e-11
  16    -9.1456921177759e-12
  17    6.5404693845158e-12
  18    1.1684034907418e-10
  19    3.0088298288698e-12
  20    0.0010212065121502
  21    -0.001494997975696
  22    0.0018901715109557
  23    -0.00046826691519248
  24    -1.506872914962e-08
  25    0.0013097591423011
  26    0.0022958204814727
  27    -1.654011921947e-12
  28    2.9511931871641e-13
  29    -9.9165745688914e-14
  30     -0.37348943802633
  31      0.56890970360375
  32      -0.1955140632871
  33    0.0039325043748738
  34    -0.0059899199240438
  35    0.0020586307983099
  36    -2.6498397640904e-10
  37    -4.0958456690911e-10
  38    2.6732447188781e-10
  39    -7.4101206338602e-10
  40    1.4082761768371e-10
  41    -4.2624196032687e-11
  42    8.9608727812428e-12
  43    -6.1431794751167e-12
  44    -1.1699826072898e-10
  45    -3.0110362311444e-12
  46     0.001021819792653
  47    -0.0014958102942124
  48    0.0018908166870877
  49    -0.00046854001307123
  50    3.0781501155185e-08
  51    0.0013104516601699
  52    0.0022965276606345
  53    4.2237513468909e-07
  54    -4.1234338728151e-07
  55    -0.0023751064465456
  56    0.0036183511051766
  57    -0.001243263929326
  58    0.0033451552585336
  59    -0.0050961726601313
  60    0.0017510421553408
  61    -2.5340757246066e-07
  62    1.2128533360747e-07
  63    -3.1354207696983e-08
  64    -7.7063218933796e-07
  65    9.3142278177287e-10
  66    -4.2237515708366e-07
  67    4.1234335299196e-07
  68    -0.0023751062905149
  69    0.0036183508651701
  70    -0.0012432638456558
  71    0.0033451553529051
  72    -0.0050961728033833
  73    0.0017510422029743
  74    2.5340765781345e-07
  75    -1.2128522541215e-07
  76    3.1354117354383e-08
  77    7.7063244045539e-07
  78    -9.3145992446184e-10
 Sym= A
 Ene=               6
 Spin= Alpha
 Occup=    1.00000
   1    -2.2959120595409e-13
   2    1.6663340342922e-13
   3    -1.2869986689564e-13
   4     -0.44109135349988
   5     -0.10268063911284
   6      0.54382980746792
   7     0.004644505333538
   8     0.001081136929744
   9    -0.0057264014508288
  10    -7.3585814686376e-10
  11    -7.4851252629178e-11
  12    -3.1891686636004e-10
  13    2.651948023233e-10
  14    3.9269416889839e-10
  15    -1.1905182799825e-10
  16    8.6339679202865e-13
  17    6.0670225790645e-12
  18    4.2318527426808e-11
  19    -7.4577129752889e-12
  20    -0.0028426200975514
  21    -0.0011578271341045
  22    5.8409925720958e-05
  23    -0.0001682246865611
  24    -1.8762805732947e-08
  25    0.0020195950530828
  26    -0.00072417083583847
  27    3.6764825864221e-12
  28    -5.7059473834232e-13
  29    1.2438408468763e-13
  30     -0.44136689461306
  31      -0.1027663050926
  32      0.54407689791274
  33    0.0046471484949277
  34    0.0010820703366801
  35    -0.0057284768910101
  36    7.358593767196e-10
  37    7.5941476807905e-11
  38    3.1969946517546e-10
  39    -2.6563868805938e-10
  40    -3.9346441145109e-10
  41    1.1956213057236e-10
  42    -1.2511020240853e-12
  43    -6.28059125095e-12
  44    -4.236339375539e-11
  45    7.6057287680755e-12
  46    -0.0028436331094808
  47    -0.0011583586134589
  48    5.8432385934323e-05
  49    -0.0001683580311548
  50    1.0457839546033e-08
  51    0.0020206039992141
  52    -0.00072462452831176
  53    2.7225897023772e-07
  54    -2.6575423575173e-07
  55    -0.0028068550767025
  56    -0.00065346795476034
  57    0.0034603249113855
  58    0.0039532372691506
  59    0.0009203596939578
  60    -0.0048736009278104
  61    7.7758767577186e-07
  62    4.0580021067531e-09
  63    -5.3855261167931e-08
  64    -2.9933701634923e-07
  65    1.083087162895e-07
  66    -2.7225882431325e-07
  67    2.6575435184819e-07
  68    -0.0028068548863664
  69    -0.00065346790853824
  70    0.0034603246754755
  71    0.0039532373774911
  72    0.00092035971830528
  73    -0.004873601058726
  74    -7.7758791133651e-07
  75    -4.057999667519e-09
  76    5.3855193414185e-08
  77    2.9933710474181e-07
  78    -1.0830862036271e-07
 Sym= A
 Ene=               7
 Spin= Alpha
 Occup=    1.00000
   1    1.6856580643671e-09
   2    -6.6583826311993e-11
   3    -3.0546999848108e-10
   4      0.40858144604793
   5      0.40859607519543
   6      0.40858925475394
   7    -0.0033940597226987
   8    -0.0033941864542231
   9    -0.0033941288846433
  10    -6.4987789567952e-13
  11    -5.4287577483574e-10
  12    -5.4286721226631e-10
  13    -1.0829720300323e-13
  14    -5.4269110873964e-10
  15    -1.9615206119679e-13
  16    2.4361602219803e-11
  17    2.4101692343941e-11
  18    -9.5267164031407e-14
  19    2.339845318395e-11
  20    -0.0017940927860092
  21    0.0010986271725596
  22    0.0010986634775843
  23    1.1377196887832e-09
  24    -0.00042658272941521
  25    -0.0014183291689832
  26    0.0014183704081734
  27    -1.688029438468e-09
  28    6.5109177436761e-11
  29    3.0891874747433e-10
  30      0.40888571830647
  31      0.40887880857653
  32      0.40887826470974
  33    -0.0033980017352842
  34    -0.0033979430897744
  35    -0.003397939478164
  36    -3.5490964953322e-13
  37    5.4312954247701e-10
  38    5.4317997537782e-10
  39    7.1394183792679e-14
  40    5.4403035034257e-10
  41    5.0346546505747e-13
  42    -2.4003764818085e-11
  43    -2.3787129646131e-11
  44    1.0641918731977e-13
  45    -2.3470379451427e-11
  46     -0.00179524762291
  47    0.0010993722758787
  48    0.0010993564677336
  49    -4.0784604163558e-09
  50    -0.00042682547691026
  51    -0.0014192944128202
  52    0.0014192588089142
  53    -2.0985637521238e-06
  54    2.0356257668019e-06
  55     0.001791285056391
  56    0.0017912984643498
  57    0.0017912895989489
  58     -0.00224745793315
  59    -0.002247483763432
  60    -0.0022474617962824
  61    -7.979348215777e-09
  62    -1.5356521864359e-07
  63    -1.4652072573486e-07
  64    3.3595603219116e-08
  65    -1.5153197686417e-07
  66    2.0985620886416e-06
  67    -2.0356283622598e-06
  68    0.0017912849733745
  69    0.0017912983815678
  70    0.0017912895153097
  71    -0.0022474579088079
  72    -0.0022474837393608
  73    -0.0022474617712557
  74    7.9793634907065e-09
  75    1.5356567348698e-07
  76    1.4652118185458e-07
  77    -3.359560222778e-08
  78    1.5153247708789e-07
 Sym= A
 Ene=               8
 Spin= Alpha
 Occup=    1.00000
   1     0.058490987975383
   2    -0.025399293382279
   3    -0.025756574696973
   4    -1.4678229170683e-08
   5    -1.467769918452e-08
   6    -1.4679861929271e-08
   7    7.0229268484968e-09
   8    7.0225063239882e-09
   9    7.023912194938e-09
  10    2.1818435849905e-08
  11    0.0017801008691402
  12    0.0017801154033281
  13    7.3072641410771e-09
  14    0.0017801168592173
  15    2.1529056071278e-09
  16    0.0012874522835757
  17    0.0012874619953649
  18    -1.3113083602049e-08
  19    0.0012874618375479
  20    1.7699949641595e-09
  21    -1.0835994581634e-09
  22    -1.0834929257967e-09
  23    2.7560000310033e-15
  24    3.4536064035499e-11
  25    1.3989633661575e-09
  26    -1.3988182563896e-09
  27     0.058490949448241
  28    -0.025399285568871
  29    -0.025756531633384
  30    1.4691482302654e-08
  31    1.4691002787534e-08
  32    1.4692380902437e-08
  33    -6.9623921356592e-09
  34    -6.9620159698293e-09
  35    -6.962919044383e-09
  36    1.5863599256626e-08
  37    0.0017800930425599
  38    0.0017800999325284
  39    3.361517323675e-08
  40    0.0017801071972758
  41    -3.1189716146931e-09
  42    0.0012874573131879
  43    0.0012874588492302
  44    9.7232035161993e-09
  45    0.0012874648939605
  46    -1.7513307939115e-09
  47    1.0722925700022e-09
  48    1.0721912536644e-09
  49    -6.1582126666813e-16
  50    -3.4291340484627e-11
  51    -1.3842942189942e-09
  52    1.3841615144228e-09
  53      0.61701573038054
  54    -0.043924243809097
  55    4.8535656473963e-08
  56    3.3356353759899e-08
  57    3.8909386947044e-08
  58    -1.4559663439545e-08
  59    -7.9209944519644e-09
  60    -9.8061884371933e-09
  61    -2.3840147668545e-09
  62    -0.00052928387992671
  63    -0.00052928252641661
  64    -3.0561576407672e-09
  65    -0.00052928188261117
  66      0.61701518986504
  67    -0.043924215080775
  68    -4.851172352145e-08
  69    -3.3332898968516e-08
  70    -3.887796866221e-08
  71    1.4808398637822e-08
  72    8.1698251706187e-09
  73    1.0053688124392e-08
  74    -2.3872218141547e-09
  75    -0.00052928349416738
  76    -0.0005292821409873
  77    -3.0570593260224e-09
  78    -0.00052928149811282
 Sym= A
 Ene=               9
 Spin= Alpha
 Occup=    1.00000
   1     2.50969014255e-08
   2    -1.0449097478893e-08
   3    -1.1909183222171e-08
   4     0.036546452182642
   5     0.036546449510224
   6     0.036546450071605
   7     -0.01832477906753
   8    -0.018324767735418
   9    -0.018324772273859
  10    -1.9024253473126e-12
  11    1.3361659966677e-09
  12    1.3350084521239e-09
  13    -1.3369690222268e-13
  14    1.3313682022212e-09
  15    6.0722808509728e-13
  16    9.0186792547079e-10
  17    9.0140164491544e-10
  18    1.8745938110443e-13
  19    8.9989689830412e-10
  20    -0.0045393853389172
  21    0.0027797936983485
  22    0.0027797931098806
  23    -9.7865169049024e-10
  24    -0.00011066399276259
  25    -0.0035887023609389
  26    0.0035886972541745
  27    2.502328485677e-08
  28    -1.0559291422606e-08
  29    -1.1729773243717e-08
  30    -0.036546449656978
  31    -0.036546454012025
  32    -0.036546452196153
  33     0.018324747702968
  34     0.018324756901312
  35     0.018324755235082
  36    -2.2176163710055e-12
  37    1.2826204785674e-09
  38    1.2814506783439e-09
  39    -1.6671324275043e-13
  40    1.2779588513246e-09
  41    4.4592226590711e-13
  42    8.5635731286535e-10
  43    8.5592852686824e-10
  44    1.7379221178092e-13
  45    8.5500744875917e-10
  46    0.0045393832629199
  47    -0.0027797901314992
  48    -0.0027797923261564
  49    7.8903413022525e-10
  50    0.00011066556478725
  51    0.0035886974836074
  52    -0.0035886970664334
  53     -0.66381312030726
  54     0.041478655719103
  55    -4.4341218277817e-08
  56    -2.8289225955891e-08
  57    -3.3793330706854e-08
  58    2.391774821484e-08
  59    9.2605502304012e-09
  60    1.3500513524549e-08
  61    2.1440455180249e-09
  62    0.00074324708464571
  63    0.00074324684969175
  64    2.9133214187686e-09
  65    0.00074324658840959
  66      0.66381360873882
  67    -0.041478699396441
  68    -4.4349208617252e-08
  69    -2.829785265863e-08
  70    -3.3791049889889e-08
  71    2.3821373527264e-08
  72    9.1642055482624e-09
  73    1.3403196649051e-08
  74    -2.1469484383319e-09
  75    -0.00074324796358722
  76    -0.00074324772930477
  77    -2.9141900194952e-09
  78    -0.00074324747000106
 Sym= A
 Ene=              10
 Spin= Alpha
 Occup=    1.00000
   1     0.070964621158518
   2    -0.049418745890441
   3    -0.026952392414737
   4    -1.8340146915951e-09
   5    -1.8336401744781e-09
   6    -1.8358439898284e-09
   7    1.047008348749e-09
   8    1.0467151862688e-09
   9    1.0484482304339e-09
  10    -2.8771121709185e-07
  11      0.18774208297911
  12      0.18774162263873
  13    -3.3988611881202e-07
  14      0.18774190947489
  15    1.7807469124303e-08
  16    0.0019339329880748
  17    0.0019339507890846
  18    -5.3189850126839e-09
  19    0.0019339407131761
  20    5.9721738935153e-10
  21    -3.6514855420206e-10
  22    -3.650944618294e-10
  23    8.9580636204799e-14
  24    -5.81804489607e-10
  25    4.7179793070635e-10
  26    -4.7157779752748e-10
  27    -0.070964543105243
  28     0.049418783818648
  29     0.026952265610033
  30    -1.8379581965581e-09
  31    -1.8376622594356e-09
  32    -1.8385712162121e-09
  33    1.0245232215745e-09
  34    1.0244045623968e-09
  35    1.0233807396451e-09
  36    3.263834171578e-07
  37     -0.18774046566748
  38     -0.18774072630635