[Molden Format]
made by pyscf v[2.8.0]
[Atoms] (AU)
Ni   1   18     0.00000000000000     0.00000000000000     0.00000000000000
Ni   2   18    13.22808287195544    13.22808287195544    13.22808287195544
Ni   3   18     6.61404143597772     6.61404143597772    13.22808287195544
Ni   4   18    19.84212430793316    19.84212430793316    26.45616574391088
O   5   6     6.61404143597772     6.61404143597772     6.61404143597772
O   6   6    19.84212430793316    19.84212430793316    19.84212430793316
O   7   6    13.22808287195544    13.22808287195544    19.84212430793316
O   8   6    26.45616574391088    26.45616574391088    33.07020717988860
[GTO]
1 0
 s    5 1.00
       10.077427756816   -0.16816538591041
        5.847735848326   -0.31203986825241
        2.494032826008    0.76231213094128
        0.988354848429    0.55437604679043
        0.344978242158    0.03155701098717
 s    5 1.00
       10.077427756816   0.058000950062097
        5.847735848326    0.14653254811322
        2.494032826008   -0.50777581008225
        0.988354848429    -1.0938070247199
        0.344978242158    0.66529670756055
 s    5 1.00
       10.077427756816  0.0053460448296085
        5.847735848326   -0.08418457883001
        2.494032826008  0.0015718453997724
        0.988354848429   -0.87757432617674
        0.344978242158     1.5777647329419
 p    5 1.00
       10.077427756816   -0.12236774170237
        5.847735848326    0.23342048133724
        2.494032826008    0.52638460167342
        0.988354848429    0.39425731817561
        0.344978242158   0.051608556148131
 p    5 1.00
       10.077427756816  -0.012616972687739
        5.847735848326  -0.025194607896872
        2.494032826008   -0.22268415555677
        0.988354848429   -0.22497484726751
        0.344978242158     1.1712751328261
 d    5 1.00
       10.077427756816    0.08918252306285
        5.847735848326    0.25567343360121
        2.494032826008     0.3554995300545
        0.988354848429    0.34934981895974
        0.344978242158    0.26737625455372
 d    5 1.00
       10.077427756816  -0.093993451492197
        5.847735848326   -0.36074197756838
        2.494032826008    -0.5570889903816
        0.988354848429   -0.15334190860524
        0.344978242158    0.42481173879085
 f    5 1.00
       10.077427756816  -0.0083683152125103
        5.847735848326    0.03763133075813
        2.494032826008   0.027363949027932
        0.988354848429    0.87387054931809
        0.344978242158    0.16755768848104

2 0
 s    5 1.00
       10.077427756816   -0.16816538591041
        5.847735848326   -0.31203986825241
        2.494032826008    0.76231213094128
        0.988354848429    0.55437604679043
        0.344978242158    0.03155701098717
 s    5 1.00
       10.077427756816   0.058000950062097
        5.847735848326    0.14653254811322
        2.494032826008   -0.50777581008225
        0.988354848429    -1.0938070247199
        0.344978242158    0.66529670756055
 s    5 1.00
       10.077427756816  0.0053460448296085
        5.847735848326   -0.08418457883001
        2.494032826008  0.0015718453997724
        0.988354848429   -0.87757432617674
        0.344978242158     1.5777647329419
 p    5 1.00
       10.077427756816   -0.12236774170237
        5.847735848326    0.23342048133724
        2.494032826008    0.52638460167342
        0.988354848429    0.39425731817561
        0.344978242158   0.051608556148131
 p    5 1.00
       10.077427756816  -0.012616972687739
        5.847735848326  -0.025194607896872
        2.494032826008   -0.22268415555677
        0.988354848429   -0.22497484726751
        0.344978242158     1.1712751328261
 d    5 1.00
       10.077427756816    0.08918252306285
        5.847735848326    0.25567343360121
        2.494032826008     0.3554995300545
        0.988354848429    0.34934981895974
        0.344978242158    0.26737625455372
 d    5 1.00
       10.077427756816  -0.093993451492197
        5.847735848326   -0.36074197756838
        2.494032826008    -0.5570889903816
        0.988354848429   -0.15334190860524
        0.344978242158    0.42481173879085
 f    5 1.00
       10.077427756816  -0.0083683152125103
        5.847735848326    0.03763133075813
        2.494032826008   0.027363949027932
        0.988354848429    0.87387054931809
        0.344978242158    0.16755768848104

3 0
 s    5 1.00
       10.077427756816   -0.16816538591041
        5.847735848326   -0.31203986825241
        2.494032826008    0.76231213094128
        0.988354848429    0.55437604679043
        0.344978242158    0.03155701098717
 s    5 1.00
       10.077427756816   0.058000950062097
        5.847735848326    0.14653254811322
        2.494032826008   -0.50777581008225
        0.988354848429    -1.0938070247199
        0.344978242158    0.66529670756055
 s    5 1.00
       10.077427756816  0.0053460448296085
        5.847735848326   -0.08418457883001
        2.494032826008  0.0015718453997724
        0.988354848429   -0.87757432617674
        0.344978242158     1.5777647329419
 p    5 1.00
       10.077427756816   -0.12236774170237
        5.847735848326    0.23342048133724
        2.494032826008    0.52638460167342
        0.988354848429    0.39425731817561
        0.344978242158   0.051608556148131
 p    5 1.00
       10.077427756816  -0.012616972687739
        5.847735848326  -0.025194607896872
        2.494032826008   -0.22268415555677
        0.988354848429   -0.22497484726751
        0.344978242158     1.1712751328261
 d    5 1.00
       10.077427756816    0.08918252306285
        5.847735848326    0.25567343360121
        2.494032826008     0.3554995300545
        0.988354848429    0.34934981895974
        0.344978242158    0.26737625455372
 d    5 1.00
       10.077427756816  -0.093993451492197
        5.847735848326   -0.36074197756838
        2.494032826008    -0.5570889903816
        0.988354848429   -0.15334190860524
        0.344978242158    0.42481173879085
 f    5 1.00
       10.077427756816  -0.0083683152125103
        5.847735848326    0.03763133075813
        2.494032826008   0.027363949027932
        0.988354848429    0.87387054931809
        0.344978242158    0.16755768848104

4 0
 s    5 1.00
       10.077427756816   -0.16816538591041
        5.847735848326   -0.31203986825241
        2.494032826008    0.76231213094128
        0.988354848429    0.55437604679043
        0.344978242158    0.03155701098717
 s    5 1.00
       10.077427756816   0.058000950062097
        5.847735848326    0.14653254811322
        2.494032826008   -0.50777581008225
        0.988354848429    -1.0938070247199
        0.344978242158    0.66529670756055
 s    5 1.00
       10.077427756816  0.0053460448296085
        5.847735848326   -0.08418457883001
        2.494032826008  0.0015718453997724
        0.988354848429   -0.87757432617674
        0.344978242158     1.5777647329419
 p    5 1.00
       10.077427756816   -0.12236774170237
        5.847735848326    0.23342048133724
        2.494032826008    0.52638460167342
        0.988354848429    0.39425731817561
        0.344978242158   0.051608556148131
 p    5 1.00
       10.077427756816  -0.012616972687739
        5.847735848326  -0.025194607896872
        2.494032826008   -0.22268415555677
        0.988354848429   -0.22497484726751
        0.344978242158     1.1712751328261
 d    5 1.00
       10.077427756816    0.08918252306285
        5.847735848326    0.25567343360121
        2.494032826008     0.3554995300545
        0.988354848429    0.34934981895974
        0.344978242158    0.26737625455372
 d    5 1.00
       10.077427756816  -0.093993451492197
        5.847735848326   -0.36074197756838
        2.494032826008    -0.5570889903816
        0.988354848429   -0.15334190860524
        0.344978242158    0.42481173879085
 f    5 1.00
       10.077427756816  -0.0083683152125103
        5.847735848326    0.03763133075813
        2.494032826008   0.027363949027932
        0.988354848429    0.87387054931809
        0.344978242158    0.16755768848104

5 0
 s    5 1.00
       10.389228018317   0.096173629276308
        3.849621072005    0.10660531634684
        1.388401188741   -0.33089834130169
        0.496955043655    -0.6496800688702
         0.16249161504   -0.18463001807573
 s    5 1.00
       10.389228018317   0.073630541584408
        3.849621072005    0.12300997725073
        1.388401188741   -0.34343118342323
        0.496955043655   -0.10206354789477
         0.16249161504     1.1731714191581
 p    5 1.00
       10.389228018317  -0.057562550918086
        3.849621072005    -0.1784919811951
        1.388401188741   -0.35468525474322
        0.496955043655   -0.42655539522159
         0.16249161504    -0.2416879946641
 p    5 1.00
       10.389228018317  -0.021265755186923
        3.849621072005  -0.0049739296849897
        1.388401188741    -0.1779930881255
        0.496955043655    0.30108256988861
         0.16249161504    0.83447656856867
 d    5 1.00
       10.389228018317   0.018871300922529
        3.849621072005   0.038532527740515
        1.388401188741    0.46305094876991
        0.496955043655    0.56500599531169
         0.16249161504   0.096713771818926

6 0
 s    5 1.00
       10.389228018317   0.096173629276308
        3.849621072005    0.10660531634684
        1.388401188741   -0.33089834130169
        0.496955043655    -0.6496800688702
         0.16249161504   -0.18463001807573
 s    5 1.00
       10.389228018317   0.073630541584408
        3.849621072005    0.12300997725073
        1.388401188741   -0.34343118342323
        0.496955043655   -0.10206354789477
         0.16249161504     1.1731714191581
 p    5 1.00
       10.389228018317  -0.057562550918086
        3.849621072005    -0.1784919811951
        1.388401188741   -0.35468525474322
        0.496955043655   -0.42655539522159
         0.16249161504    -0.2416879946641
 p    5 1.00
       10.389228018317  -0.021265755186923
        3.849621072005  -0.0049739296849897
        1.388401188741    -0.1779930881255
        0.496955043655    0.30108256988861
         0.16249161504    0.83447656856867
 d    5 1.00
       10.389228018317   0.018871300922529
        3.849621072005   0.038532527740515
        1.388401188741    0.46305094876991
        0.496955043655    0.56500599531169
         0.16249161504   0.096713771818926

7 0
 s    5 1.00
       10.389228018317   0.096173629276308
        3.849621072005    0.10660531634684
        1.388401188741   -0.33089834130169
        0.496955043655    -0.6496800688702
         0.16249161504   -0.18463001807573
 s    5 1.00
       10.389228018317   0.073630541584408
        3.849621072005    0.12300997725073
        1.388401188741   -0.34343118342323
        0.496955043655   -0.10206354789477
         0.16249161504     1.1731714191581
 p    5 1.00
       10.389228018317  -0.057562550918086
        3.849621072005    -0.1784919811951
        1.388401188741   -0.35468525474322
        0.496955043655   -0.42655539522159
         0.16249161504    -0.2416879946641
 p    5 1.00
       10.389228018317  -0.021265755186923
        3.849621072005  -0.0049739296849897
        1.388401188741    -0.1779930881255
        0.496955043655    0.30108256988861
         0.16249161504    0.83447656856867
 d    5 1.00
       10.389228018317   0.018871300922529
        3.849621072005   0.038532527740515
        1.388401188741    0.46305094876991
        0.496955043655    0.56500599531169
         0.16249161504   0.096713771818926

8 0
 s    5 1.00
       10.389228018317   0.096173629276308
        3.849621072005    0.10660531634684
        1.388401188741   -0.33089834130169
        0.496955043655    -0.6496800688702
         0.16249161504   -0.18463001807573
 s    5 1.00
       10.389228018317   0.073630541584408
        3.849621072005    0.12300997725073
        1.388401188741   -0.34343118342323
        0.496955043655   -0.10206354789477
         0.16249161504     1.1731714191581
 p    5 1.00
       10.389228018317  -0.057562550918086
        3.849621072005    -0.1784919811951
        1.388401188741   -0.35468525474322
        0.496955043655   -0.42655539522159
         0.16249161504    -0.2416879946641
 p    5 1.00
       10.389228018317  -0.021265755186923
        3.849621072005  -0.0049739296849897
        1.388401188741    -0.1779930881255
        0.496955043655    0.30108256988861
         0.16249161504    0.83447656856867
 d    5 1.00
       10.389228018317   0.018871300922529
        3.849621072005   0.038532527740515
        1.388401188741    0.46305094876991
        0.496955043655    0.56500599531169
         0.16249161504   0.096713771818926

[5d]
[7f]
[9g]
[core]
1 : 10
2 : 10
3 : 10
4 : 10
5 : 2
6 : 2
7 : 2
8 : 2

[MO]
 Sym= A
 Ene=               0
 Spin= Alpha
 Occup=    1.00000
   1    -2.3985595764849e-14
   2    -3.7899536074706e-15
   3    5.4978526797532e-14
   4    0.00022050900508254
   5    -0.0002205090050806
   6    1.3040300197119e-14
   7    -0.00067827121479579
   8    0.00067827121479198
   9    -6.8706786292452e-14
  10    1.4398618979473e-11
  11       0.5938796987134
  12     -0.59387969873931
  13      0.56374176224908
  14    -2.4392955938324e-11
  15    2.1771227724029e-13
  16     0.010585521584774
  17    -0.010585521585226
  18    0.0092801226485779
  19    -4.2367130104563e-13
  20    -7.0592162930269e-15
  21    -0.00035042552795031
  22    0.00035042552796992
  23    3.6758879906838e-05
  24    2.5773772098339e-15
  25    0.00015770350921261
  26    0.00015770350919783
  27    9.7508397752508e-15
  28    -3.3633363871133e-15
  29    -3.5474265384531e-14
  30    9.153465548236e-05
  31    -9.153465547715e-05
  32    6.4935100103746e-16
  33    -0.00013941250977469
  34    0.00013941250976224
  35    -4.6859296779857e-15
  36    3.2371024954503e-14
  37    2.135003041815e-05
  38    -2.1350030418038e-05
  39    0.00042844303394537
  40    5.2283284561026e-14
  41    2.5731081131254e-15
  42    2.0886618944556e-05
  43    -2.0886618941151e-05
  44    2.7769597861933e-05
  45    9.0459364226429e-15
  46    -4.8435327163012e-16
  47    -1.7183916754463e-05
  48    1.7183916754877e-05
  49    -7.1263998813362e-06
  50    -2.4845362367664e-16
  51    -3.8477814901084e-06
  52    -3.8477814903914e-06
  53    -1.195802522749e-14
  54    -1.1967797618099e-14
  55    -1.089876057935e-15
  56    5.7769042962956e-06
  57    -5.7769042968856e-06
  58    1.2299545282987e-15
  59    2.5918086462454e-05
  60    -2.5918086465918e-05
  61    3.3803941237136e-15
  62    -2.4065151307066e-15
  63    3.9585207693746e-05
  64    -3.9585207689022e-05
  65    0.00011281264782728
  66    5.0525034942207e-16
  67    -8.9121219688947e-16
  68    2.6454325480592e-05
  69    -2.6454325477812e-05
  70    7.5146328044647e-05
  71    4.1584532777444e-16
  72    1.3915651017604e-16
  73    -1.8636508263861e-05
  74    1.8636508264019e-05
  75    -3.6993486544051e-07
  76    1.2026655004521e-18
  77    1.4437115855932e-05
  78    1.4437115856869e-05
  79    1.5180855110974e-14
  80    1.5150338129499e-14
  81    1.5142460009892e-15
  82    -4.0290584447529e-07
  83    4.0290584425196e-07
  84    2.255645070269e-16
  85    -9.0577167807751e-06
  86    9.0577167806999e-06
  87    5.7344157793064e-16
  88    1.1956648163331e-14
  89    -3.5318822479845e-05
  90    3.5318822477646e-05
  91    -2.1851402948372e-05
  92    1.9682844396044e-16
  93    7.9080077137161e-15
  94    -2.1325832296377e-05
  95    2.1325832295265e-05
  96    -9.7928403550968e-06
  97    3.1443334998713e-17
  98    1.6954085328253e-16
  99    -1.7106285992458e-05
 100    1.7106285992252e-05
 101    -3.728248769032e-07
 102    -4.819049996799e-18
 103    3.6197694505005e-06
 104    3.6197694504733e-06
 105    -9.624942890625e-14
 106    -6.680366868535e-14
 107    -0.011384668159729
 108     0.011384668158817
 109    -3.6141790661973e-13
 110    0.0049061126411445
 111    -0.0049061126409956
 112    1.2052841231916e-13
 113    1.0051462831453e-14
 114    -0.0002786925282599
 115      0.00027869252827
 116    0.0010760144481879
 117    2.2387177254966e-14
 118    8.7500887423239e-14
 119    5.0656537918356e-14
 120    -0.0023932936091141
 121      0.00239329360924
 122    1.996987270389e-13
 123    0.0017222063660482
 124    -0.0017222063661243
 125    -1.5771883690267e-13
 126    1.6942032655299e-14
 127    -0.00029055653861828
 128    0.00029055653863062
 129    4.302899777684e-05
 130    -1.7228211698759e-15
 131    1.1283124835014e-14
 132    -3.6073893720623e-15
 133    -0.00037038010225066
 134    0.00037038010226653
 135    4.4517986376314e-14
 136    8.6480673209942e-05
 137    -8.6480673214583e-05
 138    -8.7798781070381e-15
 139    -1.7730237499638e-15
 140    2.514452545082e-05
 141    -2.5144525451779e-05
 142    -3.6265866178729e-06
 143    4.2782919715717e-17
 144    -1.0888362203996e-14
 145    3.4351714880961e-15
 146    -0.0015092870245197
 147     0.001509287024533
 148    -1.6317554366393e-14
 149    0.00021692749796794
 150    -0.00021692749796591
 151    3.1121311514171e-15
 152    -7.3653480287048e-16
 153    2.4233950060452e-05
 154    -2.4233950061183e-05
 155    -7.8081776056615e-05
 156    -2.0401995167819e-15
 Sym= A
 Ene=               1
 Spin= Alpha
 Occup=    1.00000
   1    -0.00050064773641887
   2    -0.00017526629997933
   3    0.0010089837647638
   4    0.00018015015708256
   5    0.00018015015708862
   6    0.00080470068966434
   7    -0.00032619337423865
   8    -0.0003261933742536
   9    -0.0024982842193202
  10      0.81750959623091
  11     -0.26040819693856
  12     -0.26040819690961
  13    -2.2976272061829e-11
  14     -0.47702057945032
  15     0.018955552550552
  16    -0.006264583412258
  17    -0.0062645834115355
  18    -5.35476020094e-13
  19    -0.011165603776623
  20    -0.00048537653247765
  21    0.0003698362682227
  22    0.00036983626820218
  23    1.9737734499549e-15
  24    6.9465337412732e-05
  25    7.3180576930083e-05
  26    -7.3180576946724e-05
  27    -0.0004066451172137
  28    -0.00061958591647899
  29    -0.00051933166427311
  30    -2.230461886137e-05
  31    -2.230461885141e-05
  32    7.9296264326842e-05
  33    1.5710225152748e-05
  34    1.571022513507e-05
  35    -0.00039551600672313
  36    0.0015000360333186
  37    1.7026292264495e-05
  38    1.7026292280569e-05
  39    7.8879689599214e-14
  40    0.0017143715936847
  41    -9.1502581641742e-05
  42    -1.0552028155289e-05
  43    -1.0552028151475e-05
  44    1.459811185352e-14
  45    0.00020270897669251
  46    -4.243190747211e-05
  47    1.0175253257735e-05
  48    1.0175253256421e-05
  49    1.6896825742106e-16
  50    -3.0768701561194e-06
  51    8.3429888170121e-06
  52    -8.3429888166577e-06
  53    -0.00029369911460666
  54    -0.00029438778418879
  55    -2.6043911926258e-05
  56    -7.0705842300605e-06
  57    -7.070584230038e-06
  58    2.4188835850207e-05
  59    -6.1245725946424e-05
  60    -6.1245725945808e-05
  61    5.1615771382003e-05
  62    6.5210589149708e-05
  63    4.4621692580408e-05
  64    4.4621692585202e-05
  65    -2.8390324763739e-15
  66    2.006158655008e-05
  67    6.3827923422751e-05
  68    3.0658504172676e-05
  69    3.0658504175313e-05
  70    -1.819578461261e-15
  71    1.1768840442786e-05
  72    -2.6364363413365e-05
  73    1.8082850046792e-05
  74    1.8082850045235e-05
  75    4.4324024239111e-18
  76    4.8450859449972e-08
  77    -1.9947463620455e-05
  78    1.9947463619701e-05
  79    0.00051606859576126
  80    0.00052055811451443
  81    5.3211202064592e-05
  82    -3.4927271294906e-07
  83    -3.4927271315039e-07
  84    -2.0403987819389e-05
  85    1.0118737929596e-05
  86    1.0118737929007e-05
  87    -5.7266676309507e-05
  88    0.00036640792802877
  89    1.955236629058e-05
  90    1.9552366285959e-05
  91    1.2785675543889e-15
  92    -2.6330189170666e-06
  93    0.00024563498007306
  94    1.4542652396286e-05
  95    1.4542652393729e-05
  96    7.5045043715448e-16
  97    -2.491127455823e-06
  98    -1.7100562513391e-05
  99    7.4621284681326e-06
 100    7.4621284666166e-06
 101    1.6767054364792e-17
 102    -1.117437286748e-07
 103    -8.0967377418406e-07
 104    8.0967377379733e-07
 105      -0.0054378808829
 106    -0.0036943267860333
 107    0.0028146544963235
 108    0.0028146544946376
 109    -0.0056833142416802
 110    -0.0022823265363428
 111    -0.002282326535854
 112    0.0017169466045823
 113    0.0006102879056455
 114    0.00011004492093456
 115    0.0001100449209183
 116    -4.3515748978856e-14
 117    0.00045824644333039
 118    0.0057587374257533
 119     0.003523095835231
 120    0.0037026371915781
 121    0.0037026371914608
 122    0.0076946973765136
 123    -0.0010925738008019
 124    -0.0010925738007145
 125    -0.0078572590088747
 126    0.0010858594509769
 127    0.00011989956055299
 128    0.00011989956053788
 129    -1.4616028627168e-15
 130    -3.2054667370564e-05
 131    0.00059248146784015
 132    -0.00027839064789316
 133    0.00015809002408033
 134    0.00015809002406232
 135    0.0024659206110172
 136    -7.8214714430092e-05
 137    -7.8214714423846e-05
 138    -0.00061428293714854
 139    -0.00013117881941882
 140    -1.2947166165868e-05
 141    -1.2947166164186e-05
 142    1.5245397202372e-16
 143    4.9620410362399e-07
 144    -0.00058830722215649
 145    0.00028103536799313
 146    0.00094361043888141
 147    0.00094361043876055
 148    -0.00031931413812866
 149    -0.00017674800335616
 150    -0.00017674800332975
 151    4.0477436244516e-05
 152    -7.4535872870226e-05
 153    -1.1566463298346e-05
 154    -1.1566463296617e-05
 155    4.8875327632363e-15
 156    -4.8228491879086e-05
 Sym= A
 Ene=               2
 Spin= Alpha
 Occup=    1.00000
   1    -1.2802978906122e-13
   2    -1.0275242466534e-14
   3    2.5031708056641e-13
   4    -0.00031072682325122
   5    0.00031072682330765
   6    -2.109825753968e-14
   7    0.00053939252493777
   8    -0.00053939252500168
   9    5.7656061962394e-14
  10    -1.3274012768202e-11
  11     -0.40435365378588
  12      0.40435365383241
  13      0.84721866607572
  14    -6.4790976234201e-11
  15    -5.353029416158e-13
  16    -0.014599987152661
  17     0.014599987154287
  18     0.029627994967823
  19    -2.3769426804157e-12
  20    5.8633992414284e-15
  21      0.00019661909768
  22    -0.00019661909771333
  23    -0.00047242927528545
  24    3.5125802046792e-14
  25    0.00022366521771781
  26    0.00022366521767469
  27    6.0841659647274e-14
  28    4.5432173674078e-14
  29    -4.3045992403529e-14
  30    0.0001538764719393
  31    -0.00015387647191826
  32    -1.540061290415e-16
  33    -0.00024903986019567
  34    0.0002490398601537
  35    1.4391537463962e-15
  36    -3.535558647267e-14
  37    1.8026966120405e-05
  38    -1.8026966111177e-05
  39    0.0009455913973962
  40    -6.7177032818141e-15
  41    1.0031487438858e-14
  42    4.5287614535667e-05
  43    -4.5287614525979e-05
  44    -6.9752657752856e-05
  45    3.2150238785141e-15
  46    -1.0896644234469e-16
  47    -1.4271645662147e-06
  48    1.4271645628834e-06
  49    -3.9143665354849e-07
  50    -2.1891103743757e-16
  51    -1.0988894709176e-05
  52    -1.0988894708887e-05
  53    1.8781574710766e-14
  54    1.8895854112806e-14
  55    1.7461514238557e-15
  56    -1.7648341075542e-05
  57    1.7648341076058e-05
  58    -9.4532088636959e-16
  59    -6.7791487146652e-05
  60    6.7791487150354e-05
  61    -3.8252312594524e-15
  62    -1.1069694923214e-16
  63    9.7473241226999e-05
  64    -9.7473241220255e-05
  65      -0.0001086911212
  66    -1.6879676307643e-15
  67    -2.0238181879621e-16
  68    5.627738831261e-05
  69    -5.6277388308724e-05
  70    -6.6934824448884e-05
  71    -1.1096989204067e-15
  72    -4.8827765861486e-16
  73    -2.042225880942e-05
  74    2.0422258806106e-05
  75    9.1659994911435e-07
  76    2.3205654552625e-17
  77    -1.2384305717325e-05
  78    -1.2384305719474e-05
  79    -1.5422063981377e-14
  80    -1.5626253562178e-14
  81    -1.7054233283014e-15
  82    -3.725723173851e-06
  83    3.7257231732539e-06
  84    -1.741345749596e-16
  85    -3.3481060398506e-06
  86    3.3481060385014e-06
  87    -2.9542295965764e-15
  88    -9.487732535015e-15
  89    -0.00011517578437944
  90    0.00011517578437138
  91    -8.6667843097072e-05
  92    4.4991212613506e-16
  93    -6.0207816833222e-15
  94    -7.0516891855089e-05
  95    7.051689185023e-05
  96    -6.0630326235253e-05
  97    2.8020457051586e-16
  98    -8.7025422754656e-16
  99    -2.3460279498244e-05
 100    2.3460279495446e-05
 101    -3.4364216204765e-07
 102    -2.4338698614993e-17
 103    7.8484341198471e-06
 104    7.8484341191938e-06
 105    1.0915939693185e-13
 106    7.986444625337e-14
 107    -0.031999756772352
 108     0.031999756769426
 109    1.8669126818547e-13
 110     0.010214178623873
 111    -0.010214178622977
 112    -1.5095294510446e-13
 113    -1.4339927605432e-14
 114    0.00020719299661483
 115    -0.00020719299664094
 116    0.0018616068866241
 117    7.8033925751971e-14
 118    -1.0048715089159e-13
 119    -6.4482308218221e-14
 120    0.0029752152698064
 121    -0.0029752152702379
 122    -1.4513210959732e-13
 123    -0.0014921360889988
 124    0.0014921360891946
 125    1.0249044976371e-13
 126    -1.8364561698558e-14
 127    0.00021974251784244
 128    -0.00021974251786677
 129    5.9787131812076e-05
 130    -4.8960104737957e-15
 131    -7.9735398899652e-15
 132    7.7922843369041e-15
 133    0.00023284629827639
 134    -0.00023284629830417
 135    -3.6234615958864e-14
 136    -6.3491827735817e-05
 137    6.3491827752228e-05
 138    1.2236138133376e-14
 139    3.5077951694403e-15
 140    -3.3154526219953e-05
 141    3.3154526223716e-05
 142    -4.9619105052506e-06
 143    6.9748584887686e-16
 144    8.6803135436026e-15
 145    -7.7803589342768e-15
 146    -0.0021543678824328
 147    0.0021543678823148
 148    2.6966749779252e-14
 149    0.00073644830829058
 150    -0.00073644830824258
 151    -9.4625525699775e-15
 152    2.2044560524171e-15
 153    -2.5646092978904e-05
 154    2.5646092982527e-05
 155    -0.00028162977191166
 156    -1.1573505260501e-14
 Sym= A
 Ene=               3
 Spin= Alpha
 Occup=    1.00000
   1    -0.0048408825759935
   2    -0.00010714434568724
   3    0.0037903745056553
   4    0.00047706632901603
   5    0.00047706632898324
   6    -0.00046382252540966
   7    -0.00069924026338232
   8    -0.00069924026331297
   9    0.0010730610583707
  10     -0.18273753622088
  11      0.43981075538745
  12      0.43981075533636
  13    -6.2951900229176e-11
  14       -0.794088788618
  15    -0.0075524801929228
  16     0.015648138376902
  17     0.015648138375032
  18    -2.2522490714512e-12
  19    -0.029671381241033
  20    6.5502947306135e-06
  21    -0.0002711015084775
  22    -0.00027110150845163
  23    3.5058353890646e-14
  24    0.00050431215551497
  25    0.00022707919776821
  26    -0.00022707919780528
  27    8.9032066002454e-05
  28    0.00017906563660994
  29    0.0002886246462832
  30    5.4393570750825e-05
  31    5.4393570769469e-05
  32    -1.2941071422301e-06
  33    -7.867885996595e-05
  34    -7.8678859991657e-05
  35    2.4354375690587e-05
  36    -0.00025447544260766
  37    0.00010291129454938
  38    0.0001029112945479
  39    -7.8836206649149e-14
  40    -0.00035110404134108
  41    7.1687307507223e-05
  42    2.8908740515625e-05
  43    2.8908740521932e-05
  44    -1.4027470314388e-15
  45    -7.7365310934682e-05
  46    3.9838280423701e-06
  47    -2.7196143974249e-05
  48    -2.7196143974942e-05
  49    2.2670503348879e-16
  50    8.8072739898084e-07
  51    5.790745835742e-06
  52    -5.7907458348815e-06
  53    0.00045511176612886
  54    0.00045242959526903
  55    3.8349135993774e-05
  56    9.0740987590233e-06
  57    9.0740987567385e-06
  58    -4.2570468011595e-05
  59    3.9555754317736e-05
  60    3.9555754308657e-05
  61    -0.00011672257795918
  62    0.00010450757811113
  63    4.4485261798593e-06
  64    4.448526192647e-06
  65    7.232189706501e-15
  66    -2.9282194350643e-05
  67    5.111561001974e-05
  68    5.6018979610032e-06
  69    5.601897968579e-06
  70    4.3812477187647e-15
  71    -1.8391483721523e-05
  72    -2.0425136507273e-05
  73    -1.7648591628676e-05
  74    -1.7648591631548e-05
  75    -6.6149748848145e-17
  76    3.4099783536011e-07
  77    1.7173028514825e-05
  78    -1.7173028513219e-05
  79    -0.00044630168846882
  80    -0.00044578158697538
  81    -4.1886588786525e-05
  82    -2.3248576834543e-07
  83    -2.3248576872621e-07
  84    -2.4197348432044e-05
  85    -3.1633808888073e-06
  86    -3.1633808889183e-06
  87    -8.0114375923688e-05
  88    -0.00030322881022167
  89    -2.2170755774263e-05
  90    -2.2170755789688e-05
  91    6.6486946632129e-15
  92    4.1637907884365e-06
  93    -0.00018525945158726
  94    -1.6719765019528e-05
  95    -1.671976502913e-05
  96    4.5239107917418e-15
  97    1.8154552460038e-06
  98    -2.3438421304463e-05
  99    -1.3947028566069e-05
 100    -1.3947028569367e-05
 101    3.1889286050587e-17
 102    -2.5863314515882e-07
 103    4.3859800784197e-06
 104    -4.385980079627e-06
 105    0.0019730134599276
 106    0.0014597680766908
 107    -0.0019669519453299
 108    -0.0019669519492445
 109      0.01337912878672
 110    0.0036155140939844
 111    0.0036155140953895
 112    -0.0044707227027107
 113    -0.00023281690790404
 114    -0.00021338971962949
 115    -0.00021338971960333
 116    -1.4263631950302e-13
 117    0.00098839915677573
 118    -0.0011526706144657
 119    -0.00070479462239828
 120    -0.0032476018280732
 121    -0.003247601827676
 122    -0.0040604352327071
 123    0.0016901351626213
 124    0.0016901351624273
 125    0.0022625930326487
 126    -0.00021311244896377
 127    -0.0002359208699117
 128    -0.00023592086988382
 129    -4.5916054151511e-15
 130    -5.0795797564406e-05
 131    -0.00010624104971688
 132    0.00010900601188579
 133    -0.0002583673481673
 134    -0.00025836734813757
 135    -0.00050283710896378
 136    0.00014862472155851
 137    0.00014862472155065
 138    0.00018896510152912