[Molden Format]
made by pyscf v[2.7.0]
[Atoms] (AU)
Ni   1   18     0.00000000000000     0.00000000000000     0.00000000000000
Ni   2   18     7.88015793943631     7.88015793943631     7.88015793943631
Ni   3   18     3.94007896971815     3.94007896971815     7.88015793943631
Ni   4   18    11.82023690915446    11.82023690915446    15.76031587887262
O   5   6     3.94007896971815     3.94007896971815     3.94007896971815
O   6   6    11.82023690915446    11.82023690915446    11.82023690915446
O   7   6     7.88015793943631     7.88015793943631    11.82023690915446
O   8   6    15.76031587887262    15.76031587887262    19.70039484859077
[GTO]
1 0
 s    5 1.00
       10.077427756816   -0.16816538591041
        5.847735848326   -0.31203986825241
        2.494032826008    0.76231213094128
        0.988354848429    0.55437604679043
        0.344978242158    0.03155701098717
 s    5 1.00
       10.077427756816   0.058000950062097
        5.847735848326    0.14653254811322
        2.494032826008   -0.50777581008225
        0.988354848429    -1.0938070247199
        0.344978242158    0.66529670756055
 s    5 1.00
       10.077427756816  0.0053460448296085
        5.847735848326   -0.08418457883001
        2.494032826008  0.0015718453997724
        0.988354848429   -0.87757432617674
        0.344978242158     1.5777647329419
 p    5 1.00
       10.077427756816   -0.12236774170237
        5.847735848326    0.23342048133724
        2.494032826008    0.52638460167342
        0.988354848429    0.39425731817561
        0.344978242158   0.051608556148131
 p    5 1.00
       10.077427756816  -0.012616972687739
        5.847735848326  -0.025194607896872
        2.494032826008   -0.22268415555677
        0.988354848429   -0.22497484726751
        0.344978242158     1.1712751328261
 d    5 1.00
       10.077427756816    0.08918252306285
        5.847735848326    0.25567343360121
        2.494032826008     0.3554995300545
        0.988354848429    0.34934981895974
        0.344978242158    0.26737625455372
 d    5 1.00
       10.077427756816  -0.093993451492197
        5.847735848326   -0.36074197756838
        2.494032826008    -0.5570889903816
        0.988354848429   -0.15334190860524
        0.344978242158    0.42481173879085
 f    5 1.00
       10.077427756816  -0.0083683152125103
        5.847735848326    0.03763133075813
        2.494032826008   0.027363949027932
        0.988354848429    0.87387054931809
        0.344978242158    0.16755768848104

2 0
 s    5 1.00
       10.077427756816   -0.16816538591041
        5.847735848326   -0.31203986825241
        2.494032826008    0.76231213094128
        0.988354848429    0.55437604679043
        0.344978242158    0.03155701098717
 s    5 1.00
       10.077427756816   0.058000950062097
        5.847735848326    0.14653254811322
        2.494032826008   -0.50777581008225
        0.988354848429    -1.0938070247199
        0.344978242158    0.66529670756055
 s    5 1.00
       10.077427756816  0.0053460448296085
        5.847735848326   -0.08418457883001
        2.494032826008  0.0015718453997724
        0.988354848429   -0.87757432617674
        0.344978242158     1.5777647329419
 p    5 1.00
       10.077427756816   -0.12236774170237
        5.847735848326    0.23342048133724
        2.494032826008    0.52638460167342
        0.988354848429    0.39425731817561
        0.344978242158   0.051608556148131
 p    5 1.00
       10.077427756816  -0.012616972687739
        5.847735848326  -0.025194607896872
        2.494032826008   -0.22268415555677
        0.988354848429   -0.22497484726751
        0.344978242158     1.1712751328261
 d    5 1.00
       10.077427756816    0.08918252306285
        5.847735848326    0.25567343360121
        2.494032826008     0.3554995300545
        0.988354848429    0.34934981895974
        0.344978242158    0.26737625455372
 d    5 1.00
       10.077427756816  -0.093993451492197
        5.847735848326   -0.36074197756838
        2.494032826008    -0.5570889903816
        0.988354848429   -0.15334190860524
        0.344978242158    0.42481173879085
 f    5 1.00
       10.077427756816  -0.0083683152125103
        5.847735848326    0.03763133075813
        2.494032826008   0.027363949027932
        0.988354848429    0.87387054931809
        0.344978242158    0.16755768848104

3 0
 s    5 1.00
       10.077427756816   -0.16816538591041
        5.847735848326   -0.31203986825241
        2.494032826008    0.76231213094128
        0.988354848429    0.55437604679043
        0.344978242158    0.03155701098717
 s    5 1.00
       10.077427756816   0.058000950062097
        5.847735848326    0.14653254811322
        2.494032826008   -0.50777581008225
        0.988354848429    -1.0938070247199
        0.344978242158    0.66529670756055
 s    5 1.00
       10.077427756816  0.0053460448296085
        5.847735848326   -0.08418457883001
        2.494032826008  0.0015718453997724
        0.988354848429   -0.87757432617674
        0.344978242158     1.5777647329419
 p    5 1.00
       10.077427756816   -0.12236774170237
        5.847735848326    0.23342048133724
        2.494032826008    0.52638460167342
        0.988354848429    0.39425731817561
        0.344978242158   0.051608556148131
 p    5 1.00
       10.077427756816  -0.012616972687739
        5.847735848326  -0.025194607896872
        2.494032826008   -0.22268415555677
        0.988354848429   -0.22497484726751
        0.344978242158     1.1712751328261
 d    5 1.00
       10.077427756816    0.08918252306285
        5.847735848326    0.25567343360121
        2.494032826008     0.3554995300545
        0.988354848429    0.34934981895974
        0.344978242158    0.26737625455372
 d    5 1.00
       10.077427756816  -0.093993451492197
        5.847735848326   -0.36074197756838
        2.494032826008    -0.5570889903816
        0.988354848429   -0.15334190860524
        0.344978242158    0.42481173879085
 f    5 1.00
       10.077427756816  -0.0083683152125103
        5.847735848326    0.03763133075813
        2.494032826008   0.027363949027932
        0.988354848429    0.87387054931809
        0.344978242158    0.16755768848104

4 0
 s    5 1.00
       10.077427756816   -0.16816538591041
        5.847735848326   -0.31203986825241
        2.494032826008    0.76231213094128
        0.988354848429    0.55437604679043
        0.344978242158    0.03155701098717
 s    5 1.00
       10.077427756816   0.058000950062097
        5.847735848326    0.14653254811322
        2.494032826008   -0.50777581008225
        0.988354848429    -1.0938070247199
        0.344978242158    0.66529670756055
 s    5 1.00
       10.077427756816  0.0053460448296085
        5.847735848326   -0.08418457883001
        2.494032826008  0.0015718453997724
        0.988354848429   -0.87757432617674
        0.344978242158     1.5777647329419
 p    5 1.00
       10.077427756816   -0.12236774170237
        5.847735848326    0.23342048133724
        2.494032826008    0.52638460167342
        0.988354848429    0.39425731817561
        0.344978242158   0.051608556148131
 p    5 1.00
       10.077427756816  -0.012616972687739
        5.847735848326  -0.025194607896872
        2.494032826008   -0.22268415555677
        0.988354848429   -0.22497484726751
        0.344978242158     1.1712751328261
 d    5 1.00
       10.077427756816    0.08918252306285
        5.847735848326    0.25567343360121
        2.494032826008     0.3554995300545
        0.988354848429    0.34934981895974
        0.344978242158    0.26737625455372
 d    5 1.00
       10.077427756816  -0.093993451492197
        5.847735848326   -0.36074197756838
        2.494032826008    -0.5570889903816
        0.988354848429   -0.15334190860524
        0.344978242158    0.42481173879085
 f    5 1.00
       10.077427756816  -0.0083683152125103
        5.847735848326    0.03763133075813
        2.494032826008   0.027363949027932
        0.988354848429    0.87387054931809
        0.344978242158    0.16755768848104

5 0
 s    5 1.00
       10.389228018317   0.096173629276308
        3.849621072005    0.10660531634684
        1.388401188741   -0.33089834130169
        0.496955043655    -0.6496800688702
         0.16249161504   -0.18463001807573
 s    5 1.00
       10.389228018317   0.073630541584408
        3.849621072005    0.12300997725073
        1.388401188741   -0.34343118342323
        0.496955043655   -0.10206354789477
         0.16249161504     1.1731714191581
 p    5 1.00
       10.389228018317  -0.057562550918086
        3.849621072005    -0.1784919811951
        1.388401188741   -0.35468525474322
        0.496955043655   -0.42655539522159
         0.16249161504    -0.2416879946641
 p    5 1.00
       10.389228018317  -0.021265755186923
        3.849621072005  -0.0049739296849897
        1.388401188741    -0.1779930881255
        0.496955043655    0.30108256988861
         0.16249161504    0.83447656856867
 d    5 1.00
       10.389228018317   0.018871300922529
        3.849621072005   0.038532527740515
        1.388401188741    0.46305094876991
        0.496955043655    0.56500599531169
         0.16249161504   0.096713771818926

6 0
 s    5 1.00
       10.389228018317   0.096173629276308
        3.849621072005    0.10660531634684
        1.388401188741   -0.33089834130169
        0.496955043655    -0.6496800688702
         0.16249161504   -0.18463001807573
 s    5 1.00
       10.389228018317   0.073630541584408
        3.849621072005    0.12300997725073
        1.388401188741   -0.34343118342323
        0.496955043655   -0.10206354789477
         0.16249161504     1.1731714191581
 p    5 1.00
       10.389228018317  -0.057562550918086
        3.849621072005    -0.1784919811951
        1.388401188741   -0.35468525474322
        0.496955043655   -0.42655539522159
         0.16249161504    -0.2416879946641
 p    5 1.00
       10.389228018317  -0.021265755186923
        3.849621072005  -0.0049739296849897
        1.388401188741    -0.1779930881255
        0.496955043655    0.30108256988861
         0.16249161504    0.83447656856867
 d    5 1.00
       10.389228018317   0.018871300922529
        3.849621072005   0.038532527740515
        1.388401188741    0.46305094876991
        0.496955043655    0.56500599531169
         0.16249161504   0.096713771818926

7 0
 s    5 1.00
       10.389228018317   0.096173629276308
        3.849621072005    0.10660531634684
        1.388401188741   -0.33089834130169
        0.496955043655    -0.6496800688702
         0.16249161504   -0.18463001807573
 s    5 1.00
       10.389228018317   0.073630541584408
        3.849621072005    0.12300997725073
        1.388401188741   -0.34343118342323
        0.496955043655   -0.10206354789477
         0.16249161504     1.1731714191581
 p    5 1.00
       10.389228018317  -0.057562550918086
        3.849621072005    -0.1784919811951
        1.388401188741   -0.35468525474322
        0.496955043655   -0.42655539522159
         0.16249161504    -0.2416879946641
 p    5 1.00
       10.389228018317  -0.021265755186923
        3.849621072005  -0.0049739296849897
        1.388401188741    -0.1779930881255
        0.496955043655    0.30108256988861
         0.16249161504    0.83447656856867
 d    5 1.00
       10.389228018317   0.018871300922529
        3.849621072005   0.038532527740515
        1.388401188741    0.46305094876991
        0.496955043655    0.56500599531169
         0.16249161504   0.096713771818926

8 0
 s    5 1.00
       10.389228018317   0.096173629276308
        3.849621072005    0.10660531634684
        1.388401188741   -0.33089834130169
        0.496955043655    -0.6496800688702
         0.16249161504   -0.18463001807573
 s    5 1.00
       10.389228018317   0.073630541584408
        3.849621072005    0.12300997725073
        1.388401188741   -0.34343118342323
        0.496955043655   -0.10206354789477
         0.16249161504     1.1731714191581
 p    5 1.00
       10.389228018317  -0.057562550918086
        3.849621072005    -0.1784919811951
        1.388401188741   -0.35468525474322
        0.496955043655   -0.42655539522159
         0.16249161504    -0.2416879946641
 p    5 1.00
       10.389228018317  -0.021265755186923
        3.849621072005  -0.0049739296849897
        1.388401188741    -0.1779930881255
        0.496955043655    0.30108256988861
         0.16249161504    0.83447656856867
 d    5 1.00
       10.389228018317   0.018871300922529
        3.849621072005   0.038532527740515
        1.388401188741    0.46305094876991
        0.496955043655    0.56500599531169
         0.16249161504   0.096713771818926

[5d]
[7f]
[9g]
[core]
1 : 10
2 : 10
3 : 10
4 : 10
5 : 2
6 : 2
7 : 2
8 : 2

[MO]
 Sym= A
 Ene=               0
 Spin= Alpha
 Occup=    1.00000
   1    0.0046964444267035
   2    -0.0036347632089292
   3    0.00055752748598418
   4    0.00084146653915192
   5    0.00084146653846385
   6     0.013895336354141
   7    -0.0010232967059027
   8    -0.0010232967053155
   9    -0.010414285196805
  10     0.087713064734804
  11      0.12061500879336
  12      0.12061500883579
  13    -1.758241807053e-12
  14     -0.80889901708885
  15    -0.0017039153076098
  16    -0.0030803610147639
  17    -0.0030803610158085
  18    -1.9969501758104e-13
  19      0.02648119051654
  20    0.00033470047717107
  21    -0.00012996064981538
  22    -0.00012996064972278
  23    -4.7625377292265e-14
  24    -5.9017309977657e-05
  25    -0.0004885255113623
  26    0.00048852551125683
  27    -0.0090740148893211
  28    -0.0086240064727907
  29    -0.0032934166104629
  30    0.0025915822943259
  31    0.0025915822938554
  32     0.001499585030466
  33    -0.0036383646618914
  34     -0.00363836466171
  35    -0.0038327504155061
  36    -0.0014621485860845
  37     -0.31490639788018
  38     -0.31490639771901
  39    -6.5490613035577e-12
  40     0.012928584337431
  41    0.00027014587385434
  42     0.009304982946054
  43    0.0093049829386224
  44    -7.0206370570227e-14
  45    -0.00081003608530522
  46    -0.00067732265613392
  47    -0.00013389576664428
  48    -0.0001338957665776
  49    2.3366025797418e-14
  50    -0.00079333234159983
  51    0.00093254801690344
  52    -0.00093254801695077
  53     0.041914542177588
  54     0.033452996890768
  55    0.0045269086350262
  56    0.00053585179059682
  57    0.00053585179084061
  58    -0.012697973978196
  59    0.0006842985234836
  60    0.00068429852358698
  61    -0.0085367100203661
  62     0.015589315595639
  63    -0.0044000216878073
  64    -0.0044000216889651
  65    2.0226236889161e-13
  66    -0.0043588478831747
  67    0.0065110046735702
  68    -0.0026976209858559
  69    -0.0026976209858742
  70    9.7420067859638e-14
  71    5.4751272659486e-05
  72    0.00013765093042283
  73    0.00030394827490286
  74    0.00030394827493218
  75    6.1403306372089e-14
  76    0.00016507054536913
  77    0.00032966778688366
  78    -0.00032966778687733
  79    -0.058639620495408
  80    -0.045831221834571
  81    -0.0040334564467598
  82    -0.0013279851808931
  83    -0.0013279851808215
  84    -0.0030188204560047
  85    -0.00034112391931523
  86    -0.0003411239192171
  87    -0.0020432260809994
  88    -0.029623140646664
  89    0.0014941505777161
  90    0.0014941505769885
  91    -4.0914074616832e-13
  92    0.0023483465917712
  93    -0.011410637316397
  94    0.0003142534783214
  95    0.00031425347862626
  96    -5.3823798013567e-14
  97    -0.0015808404985625
  98    -0.00050562529342447
  99    -0.00023671486324257
 100    -0.00023671486316022
 101    -4.6785842320568e-15
 102    7.2904974685297e-05
 103    -0.00021744910238801
 104    0.00021744910239578
 105    -0.019220970330807
 106    0.0043073209727335
 107    -0.0044992646683075
 108    -0.0044992646588763
 109      0.14773650938006
 110    0.0042456119610701
 111    0.0042456119592018
 112    -0.044108494170841
 113    -0.00063230268676891
 114    -0.0005139794550893
 115    -0.00051397945558578
 116    -4.4905828787348e-14
 117    0.0043450962300932
 118    -0.005347913944348
 119    0.0016350474576931
 120    -0.0093916692861351
 121    -0.0093916692863568
 122     -0.10787770352536
 123    0.0010105431460477
 124    0.0010105431454316
 125     0.030996076156028
 126    0.00098001940974501
 127    -0.00073852932024211
 128    -0.00073852932075205
 129    6.2278843480858e-15
 130    -0.0022952638453455
 131    0.0043035220652415
 132    -0.0046086438741706
 133    -0.013695737125585
 134    -0.013695737123523
 135     0.011169844394697
 136    0.0056388700256917
 137    0.0056388700263128
 138    -0.011390357239968
 139    -0.00093889201047109
 140    -0.00016724500529167
 141    -0.00016724500578358
 142    -5.0010151534151e-15
 143    -0.0002229288899612
 144    -0.00047594457824265
 145    -0.0045417846134108
 146    -0.0037468125935956
 147    -0.0037468125964168
 148    -5.2513011394246e-05
 149    -0.0068397274717038
 150    -0.0068397274724705
 151    0.0041687519755383
 152    -0.00017169455721918
 153    -0.00066717433192798
 154    -0.00066717433242937
 155    1.126571182099e-13
 156    0.0028939645301733
 Sym= A
 Ene=               1
 Spin= Alpha
 Occup=    1.00000
   1    3.7995488665685e-13
   2    -1.5019889500742e-12
   3    -3.5917838096189e-13
   4    -0.00076209413400131
   5    0.00076209413373338
   6    1.8045162921934e-12
   7    0.0027228525549387
   8    -0.0027228525552727
   9    -1.2278235687391e-12
  10    2.1611381054989e-11
  11     0.045483578997797
  12    -0.045483578963295
  13    0.0093447343884911
  14    -1.0220077319245e-10
  15    -5.6885281534912e-14
  16    0.00083581000695916
  17    -0.00083581000744095
  18    0.0028083959575832
  19    3.5596748927192e-12
  20    -1.055601443357e-15
  21    9.1569222610827e-05
  22    -9.1569222647004e-05
  23    0.00043582247841968
  24    -1.4564818926713e-14
  25    0.00060400544385051
  26    0.00060400544402466
  27    -1.9040881959681e-12
  28    -8.6050988353767e-13
  29    -9.1604828808092e-14
  30    0.00081004879126668
  31    -0.00081004879081782
  32    3.1036019216657e-13
  33    -0.00081425646685028
  34    0.00081425646599287
  35    -9.4506895291879e-13
  36    -1.265554654379e-12
  37      0.68577466661054
  38     -0.68577466666423
  39    -0.013710744559407
  40    -7.390485294564e-14
  41    -7.2428379535574e-14
  42    -0.030967156775017
  43     0.030967156775673
  44    0.00053161900233499
  45    -1.1684856134836e-13
  46    -1.5039872356256e-13
  47    -0.00013912902961895
  48    0.00013912902963522
  49    5.8948593032207e-05
  50    -1.0052397172241e-13
  51    -0.00011206015127681
  52    -0.00011206015154858
  53    7.0513004789676e-12
  54    5.5865221358943e-12
  55    6.882778605082e-13
  56    0.00080481467811364
  57    -0.00080481467754856
  58    -1.7313081384582e-12
  59    0.00073659901390756
  60    -0.00073659901332749
  61    -1.3149220293697e-12
  62    1.9416092591086e-12
  63    -0.0024061444397721
  64    0.0024061444382918
  65    -0.0011276529286047
  66    -6.9824382021567e-13
  67    8.5492550921537e-13
  68    0.00042612426942247
  69    -0.00042612427021247
  70    -4.7630133725063e-05
  71    -2.6435662680041e-14
  72    3.9037375140627e-15
  73    -0.0001781604789511
  74    0.00017816047905287
  75    -0.00050751101512907
  76    2.8184607326021e-14
  77    0.0002189199374862
  78    0.00021891993734417
  79    -7.6928012527948e-12
  80    -6.0080889059195e-12
  81    -4.4736592319234e-13
  82    -0.00012395365652982
  83    0.00012395365617653
  84    -6.2560462322947e-13
  85    2.7317816597021e-05
  86    -2.731781673098e-05
  87    -4.9375175344741e-13
  88    -4.0538964666688e-12
  89    -0.0040535721217241
  90     0.004053572122431
  91    0.0041632321133657
  92    1.6951180820856e-13
  93    -1.6573793873802e-12
  94    0.00088571594476071
  95    -0.00088571594449799
  96    0.00053881768971969
  97    -2.8618161043012e-13
  98    -1.1790150283176e-13
  99    -8.5742104510743e-05
 100    8.5742104473525e-05
 101    1.3916159939695e-05
 102    1.3772924877007e-14
 103    5.586148999414e-05
 104    5.5861490062319e-05
 105    -3.0230666933907e-12
 106    7.8588315942693e-13
 107    -0.007869091313181
 108    0.0078690913199617
 109    2.0969881237572e-11
 110    0.0010631584669657
 111    -0.001063158467206
 112    -6.7476961431052e-12
 113    -6.0036356301361e-15
 114    -0.001916232966922
 115    0.0019162329667585
 116    -0.0002303762529156
 117    5.6189429252383e-13
 118    -1.4319896395308e-13
 119    -2.2751899956702e-13
 120    -0.0053583699762173
 121    0.0053583699684495
 122    -1.2786019852218e-11
 123     0.001757231568723
 124    -0.0017572315675993
 125    4.0264647868785e-12
 126    7.6981356618084e-14
 127    -0.0015816133271329
 128    0.0015816133268073
 129    -0.00028747247104985
 130    -3.1492342728599e-13
 131    8.3490109484124e-13
 132    -4.8806044789214e-13
 133     0.010307847589077
 134     -0.01030784759217
 135    1.6032262639611e-12
 136    0.0041124250706622
 137    -0.0041124250687931
 138    -1.6962285022839e-12
 139    -8.9370919898871e-14
 140    -0.0018714044585249
 141    0.0018714044584001
 142    -4.271517579964e-05
 143    -1.9610909011483e-14
 144    -3.8907108505182e-13
 145    -7.0205328792752e-13
 146    -0.012038554903125
 147     0.012038554902461
 148    4.1571679995122e-13
 149    -0.0024192561766428
 150    0.0024192561743041
 151    1.6770502251088e-13
 152    -6.881786921752e-14
 153    -0.001654689216915
 154    0.0016546892166035
 155    -0.0010255074553445
 156    4.1091297937238e-13
 Sym= A
 Ene=               2
 Spin= Alpha
 Occup=    1.00000
   1    9.8794620984078e-14
   2    6.8020345936005e-13
   3    5.6055549678484e-14
   4     -0.01437024679653
   5     0.014370246796934
   6    -5.7775629246294e-13
   7      0.01016667646496
   8    -0.010166676465348
   9    -8.8879667374749e-15
  10    3.790699191346e-11
  11      0.12903768516588
  12     -0.12903768519799
  13    -0.041669589719244
  14    -2.1478589114112e-11
  15    -6.1261851831251e-13
  16    -0.0017566243733239
  17    0.0017566243751596
  18    -0.0069959842440799
  19    9.7916866399177e-13
  20    -2.1091363123284e-13
  21    -7.0432274192596e-05
  22    7.0432274183398e-05
  23    3.0553745873763e-05
  24    -3.3539159085053e-14
  25    0.0032099749107939
  26    0.0032099749108543
  27    -7.0940485089626e-13
  28    -6.8764464424799e-13
  29    -1.9769705506701e-13
  30    0.0032533038887594
  31    -0.0032533038892648
  32    6.5694656445416e-13
  33    -0.0026675745329349
  34    0.0026675745329562
  35    -2.5391080681674e-12
  36    7.6831467912542e-12
  37    -0.00044671717814773
  38    0.00044671718513483
  39      0.76892364713922
  40    8.4655486739822e-12
  41    -3.0250956548187e-13
  42    0.0010072465421967
  43    -0.0010072465427687
  44    -0.0072418738465103
  45    1.2544058547875e-13
  46    -3.7899715624901e-13
  47    -0.00042794505769387
  48    0.00042794505783861
  49    0.00020396346256027
  50    -1.0883313403905e-14
  51    -0.00027682813498372
  52    -0.00027682813512409
  53    3.9800140221892e-13
  54    2.1209040150505e-13
  55    -1.5277253692888e-13
  56     0.013701295717741
  57    -0.013701295717779
  58    -1.1106736811975e-13
  59    0.0062442570213577
  60    -0.0062442570211898
  61    -1.0179943564923e-13
  62    4.6629892592286e-13
  63    -0.0089878611188907
  64    0.0089878611202792
  65     0.032660603764877
  66    1.300627014525e-13
  67    2.1423335062211e-13
  68     -0.00232009390059
  69    0.0023200939009619
  70     0.010272722754552
  71    1.0270392866904e-13
  72    -2.0993183050487e-13
  73    0.00022622293714681
  74    -0.00022622293720699
  75    -0.00030580536412613
  76    -1.155264330041e-14
  77    0.0017156161288331
  78    0.0017156161288314
  79    6.8067263229909e-13
  80    4.9431166233813e-13
  81    5.5132574197904e-14
  82    -0.00065612778433157
  83    0.00065612778423232
  84    -1.3610329892761e-12
  85    -0.00054593059678358
  86    0.00054593059654141
  87    -1.3336916854526e-12
  88    -7.1378347760428e-14
  89     0.016277373271144
  90     -0.01627737327146
  91    -0.0042818752381692
  92    7.9332148002161e-14
  93    -1.6550353004569e-13
  94    0.0046679773842189
  95    -0.0046679773844163
  96    -0.0013461472818918
  97    -5.3788218606317e-14
  98    -3.0393033292869e-13
  99    -0.00043355809500144
 100    0.00043355809507015
 101    0.00023949425265339
 102    1.9639909354851e-14
 103    0.00011713577252055
 104    0.00011713577253743
 105    -2.035665531653e-12
 106    1.7983248832812e-12
 107      0.21957930884632
 108      -0.2195793088432
 109    7.5160269564312e-12
 110    -0.023951657143312
 111     0.023951657144493
 112    -3.5182123108045e-12
 113    3.2689685849376e-13
 114    -0.00084750276348785
 115    0.00084750276385563
 116    -0.00036731592034012
 117    -1.2584275639505e-14
 118    1.6054324818203e-12
 119    -9.4175052648673e-13
 120     -0.27081335912218
 121      0.27081335912444
 122    1.1935119776396e-11
 123     0.040120634461664
 124    -0.040120634463036
 125    -3.2392024748217e-12
 126    -4.3530914113023e-13
 127    0.00054705520746104
 128    -0.00054705520757024
 129    -0.0035369039405193
 130    -3.0939932360621e-13
 131     1.10653974597e-12
 132    8.0385218129121e-13
 133    0.00099428957281504
 134    -0.00099428957209824
 135    2.0582405162824e-12
 136    -0.0028912997373013
 137    0.0028912997377866
 138    -1.6982717575654e-12
 139    3.455978362764e-13
 140    -0.0008941445923702
 141    0.00089414459261406
 142    -0.00064993255448697
 143    -1.0425168911963e-14
 144    -6.6365738044629e-13
 145    -7.4541856303197e-13
 146    -0.0021517737676488
 147    0.0021517737677731
 148    3.8197308410719e-13
 149    0.0053162692648757
 150    -0.0053162692652109
 151    -1.6321746319205e-12
 152    -2.503660060413e-13
 153    0.00017971697888727
 154    -0.00017971697891764
 155    -0.0017382389948827
 156    3.831026715491e-14
 Sym= A
 Ene=               3
 Spin= Alpha
 Occup=    1.00000
   1      0.01095723445914
   2     0.037981783043751
   3     0.012804924682012
   4    0.0073726326122379
   5    0.0073726326126699
   6    0.0025223639867592
   7    -0.00073329119481107
   8    -0.00073329119549911
   9    -0.0053719815347971
  10     -0.42055863128465
  11    -0.082188828692977
  12    -0.082188828729082
  13    1.9248964660705e-11
  14      0.37339595783684
  15    0.00028648700628442
  16    -6.1890766687542e-06
  17    -6.1890756691563e-06
  18    -1.6843385567551e-13
  19    -0.018098899437095
  20    0.00034037674878518
  21    -0.00036703276033157
  22    -0.00036703276032205
  23    1.0720632195408e-14
  24    0.00020891850038594
  25    0.00060746531011217
  26    -0.0006074653099058
  27     0.024322559274178
  28    -0.0015276695391284
  29    -0.0075111057834187
  30    0.0059896179516727
  31    0.0059896179510474
  32    -0.0015799101615009
  33    -0.0010170337895107
  34    -0.0010170337888563
  35    0.0074344989790793
  36    -0.020891432511739
  37      -0.5256460382559
  38     -0.52564603828361
  39    1.9910449657659e-11
  40     0.080730758938131
  41    0.0052095101585409
  42     0.020549065601365
  43     0.020549065601965
  44    -1.9274784152129e-13
  45    0.0016591743202395
  46    0.0010714754646681
  47    -0.0010579027423909
  48    -0.001057902742308
  49    -5.3462104572271e-15
  50    0.00029228866944954
  51    -0.0012369360842029
  52    0.0012369360841011
  53    -0.016753881365039
  54    -0.012489893233672
  55    -0.0006441312492153
  56    -0.0048634021073708
  57    -0.0048634021080146
  58    -0.0025522288892134
  59    -0.0040733693694369
  60    -0.0040733693697274
  61    0.0020054855909138
  62    0.0070036914296656
  63    0.0054043530362028
  64     0.005404353036645
  65    7.8686720834376e-13
  66    0.0021308830371541
  67    0.0014905618565638
  68    0.0015946367909476
  69    0.0015946367910004
  70    2.3506705002072e-13
  71    -0.00017937997110557
  72    -0.00041905653998278
  73    -0.00066583956476175
  74    -0.00066583956476311
  75    -1.381061639158e-14
  76    -0.00015669500515647
  77    -0.00019858229329094
  78    0.0001985822933758
  79    -0.012518873866437
  80    -0.010634647140507
  81    -0.0023650947338229
  82    0.00034837526899524
  83    0.00034837526910686
  84    0.0039799265226211
  85    0.00054657309978342
  86    0.00054657309983145
  87    0.0036936270847103
  88    0.00050982757702759
  89    -0.0025327986441455
  90     -0.00253279864447
  91    -1.4143892429263e-13
  92    0.0021013059826857
  93    0.0027993132844193
  94    -0.0021005480082093
  95    -0.0021005480084514
  96    -3.6711843333884e-14
  97    0.0020064856753711
  98    0.00071084311998327
  99    -0.00073911329448724
 100    -0.00073911329444531
 101    1.8426462777628e-14
 102    -0.00020129784322072
 103    0.00048392752174757
 104    -0.00048392752173676
 105     0.035086535033441
 106    -0.010094068878438
 107      -0.1381804904182
 108     -0.13818049042149
 109    0.0069621440156404
 110     0.024540840486058
 111     0.024540840486803
 112    0.0096957612939455
 113    -0.0018801699849462
 114    0.0012981269802596
 115    0.0012981269804494
 116    1.9611783562093e-14
 117    -0.0025201920416479
 118    -0.028583747492173
 119     0.012522712436145
 120     0.044295035082176
 121       0.0442950350957
 122    -0.046005866985066
 123    -0.0029473425665742
 124    -0.0029473425688379
 125     -0.00483970640725
 126    0.0012722943601379
 127    0.0023925915467636
 128    0.0023925915467714
 129    7.2254026674891e-14
 130    0.0004821864809504
 131    -0.012223221020633
 132    -0.0026704329366219
 133    -0.0099886283092074
 134    -0.0099886283091192
 135    -0.0048086698051838
 136    -0.0012638516139715
 137    -0.0012638516138822
 138    -0.00010825589923024
 139    -0.0013461769340513
 140    0.0010874559074435
 141    0.0010874559076079
 142    -1.4383437147204e-14
 143    -4.115537526856e-05
 144     0.013646477796445