[Molden Format]
made by pyscf v[2.7.0]
[Atoms] (AU)
Ni   1   18     0.00000000000000     0.00000000000000     0.00000000000000
Ni   2   18     7.88015793943631     7.88015793943631     7.88015793943631
O   3   6     3.94007896971815     3.94007896971815     3.94007896971815
O   4   6    11.82023690915446    11.82023690915446    11.82023690915446
[GTO]
1 0
 s    5 1.00
       10.077427756816   -0.16816538591041
        5.847735848326   -0.31203986825241
        2.494032826008    0.76231213094128
        0.988354848429    0.55437604679043
        0.344978242158    0.03155701098717
 s    5 1.00
       10.077427756816   0.058000950062097
        5.847735848326    0.14653254811322
        2.494032826008   -0.50777581008225
        0.988354848429    -1.0938070247199
        0.344978242158    0.66529670756055
 s    5 1.00
       10.077427756816  0.0053460448296085
        5.847735848326   -0.08418457883001
        2.494032826008  0.0015718453997724
        0.988354848429   -0.87757432617674
        0.344978242158     1.5777647329419
 p    5 1.00
       10.077427756816   -0.12236774170237
        5.847735848326    0.23342048133724
        2.494032826008    0.52638460167342
        0.988354848429    0.39425731817561
        0.344978242158   0.051608556148131
 p    5 1.00
       10.077427756816  -0.012616972687739
        5.847735848326  -0.025194607896872
        2.494032826008   -0.22268415555677
        0.988354848429   -0.22497484726751
        0.344978242158     1.1712751328261
 d    5 1.00
       10.077427756816    0.08918252306285
        5.847735848326    0.25567343360121
        2.494032826008     0.3554995300545
        0.988354848429    0.34934981895974
        0.344978242158    0.26737625455372
 d    5 1.00
       10.077427756816  -0.093993451492197
        5.847735848326   -0.36074197756838
        2.494032826008    -0.5570889903816
        0.988354848429   -0.15334190860524
        0.344978242158    0.42481173879085
 f    5 1.00
       10.077427756816  -0.0083683152125103
        5.847735848326    0.03763133075813
        2.494032826008   0.027363949027932
        0.988354848429    0.87387054931809
        0.344978242158    0.16755768848104

2 0
 s    5 1.00
       10.077427756816   -0.16816538591041
        5.847735848326   -0.31203986825241
        2.494032826008    0.76231213094128
        0.988354848429    0.55437604679043
        0.344978242158    0.03155701098717
 s    5 1.00
       10.077427756816   0.058000950062097
        5.847735848326    0.14653254811322
        2.494032826008   -0.50777581008225
        0.988354848429    -1.0938070247199
        0.344978242158    0.66529670756055
 s    5 1.00
       10.077427756816  0.0053460448296085
        5.847735848326   -0.08418457883001
        2.494032826008  0.0015718453997724
        0.988354848429   -0.87757432617674
        0.344978242158     1.5777647329419
 p    5 1.00
       10.077427756816   -0.12236774170237
        5.847735848326    0.23342048133724
        2.494032826008    0.52638460167342
        0.988354848429    0.39425731817561
        0.344978242158   0.051608556148131
 p    5 1.00
       10.077427756816  -0.012616972687739
        5.847735848326  -0.025194607896872
        2.494032826008   -0.22268415555677
        0.988354848429   -0.22497484726751
        0.344978242158     1.1712751328261
 d    5 1.00
       10.077427756816    0.08918252306285
        5.847735848326    0.25567343360121
        2.494032826008     0.3554995300545
        0.988354848429    0.34934981895974
        0.344978242158    0.26737625455372
 d    5 1.00
       10.077427756816  -0.093993451492197
        5.847735848326   -0.36074197756838
        2.494032826008    -0.5570889903816
        0.988354848429   -0.15334190860524
        0.344978242158    0.42481173879085
 f    5 1.00
       10.077427756816  -0.0083683152125103
        5.847735848326    0.03763133075813
        2.494032826008   0.027363949027932
        0.988354848429    0.87387054931809
        0.344978242158    0.16755768848104

3 0
 s    5 1.00
       10.389228018317   0.096173629276308
        3.849621072005    0.10660531634684
        1.388401188741   -0.33089834130169
        0.496955043655    -0.6496800688702
         0.16249161504   -0.18463001807573
 s    5 1.00
       10.389228018317   0.073630541584408
        3.849621072005    0.12300997725073
        1.388401188741   -0.34343118342323
        0.496955043655   -0.10206354789477
         0.16249161504     1.1731714191581
 p    5 1.00
       10.389228018317  -0.057562550918086
        3.849621072005    -0.1784919811951
        1.388401188741   -0.35468525474322
        0.496955043655   -0.42655539522159
         0.16249161504    -0.2416879946641
 p    5 1.00
       10.389228018317  -0.021265755186923
        3.849621072005  -0.0049739296849897
        1.388401188741    -0.1779930881255
        0.496955043655    0.30108256988861
         0.16249161504    0.83447656856867
 d    5 1.00
       10.389228018317   0.018871300922529
        3.849621072005   0.038532527740515
        1.388401188741    0.46305094876991
        0.496955043655    0.56500599531169
         0.16249161504   0.096713771818926

4 0
 s    5 1.00
       10.389228018317   0.096173629276308
        3.849621072005    0.10660531634684
        1.388401188741   -0.33089834130169
        0.496955043655    -0.6496800688702
         0.16249161504   -0.18463001807573
 s    5 1.00
       10.389228018317   0.073630541584408
        3.849621072005    0.12300997725073
        1.388401188741   -0.34343118342323
        0.496955043655   -0.10206354789477
         0.16249161504     1.1731714191581
 p    5 1.00
       10.389228018317  -0.057562550918086
        3.849621072005    -0.1784919811951
        1.388401188741   -0.35468525474322
        0.496955043655   -0.42655539522159
         0.16249161504    -0.2416879946641
 p    5 1.00
       10.389228018317  -0.021265755186923
        3.849621072005  -0.0049739296849897
        1.388401188741    -0.1779930881255
        0.496955043655    0.30108256988861
         0.16249161504    0.83447656856867
 d    5 1.00
       10.389228018317   0.018871300922529
        3.849621072005   0.038532527740515
        1.388401188741    0.46305094876991
        0.496955043655    0.56500599531169
         0.16249161504   0.096713771818926

[5d]
[7f]
[9g]
[core]
1 : 10
2 : 10
3 : 2
4 : 2

[MO]
 Sym= A
 Ene=               0
 Spin= Alpha
 Occup=    1.00000
   1    -6.7308889799148e-07
   2    5.8379886916474e-07
   3    1.858537668026e-07
   4    -2.086882708145e-09
   5    1.0460180952082e-08
   6    -8.3833034333584e-09
   7    3.5319639199021e-09
   8    -1.7731829623773e-08
   9    1.4204869925804e-08
  10     0.061966902634727
  11      0.53352706222361
  12     -0.10622113234614
  13      0.05356449376185
  14      -0.4272915630042
  15    -0.0046577954805108
  16    -0.0012634807701268
  17    0.00025150958560643
  18    -0.0040261871968265
  19    0.0010117917637917
  20    -2.5154535388346e-09
  21    8.777581993426e-09
  22    8.8074747670221e-10
  23    7.0701510859277e-09
  24    2.1547327630733e-13
  25    6.0090234335402e-09
  26    -4.6571348396116e-09
  27    6.4832325800097e-07
  28    -5.5687954427371e-07
  29    -2.3075933269883e-07
  30    2.0741036492927e-09
  31    -1.0427844346051e-08
  32    8.3481851216574e-09
  33    -3.5261056726473e-09
  34    1.7726114166426e-08
  35    -1.4193171934078e-08
  36     0.061868793455655
  37      0.53330085494559
  38     -0.10618567016786
  39     0.053479061988916
  40     -0.42713031972021
  41    -0.0046612440170679
  42    -0.0012583949305487
  43    0.00025061263571651
  44    -0.004029183938741
  45     0.001007992035671
  46    2.5220252757255e-09
  47    -8.7745412042178e-09
  48    -8.7559448488251e-10
  49    -7.0661833268178e-09
  50    -2.0657348792621e-13
  51    -6.0035318412877e-09
  52    4.6605890971312e-09
  53    5.3142564222122e-09
  54    4.4249509377764e-09
  55    -1.3221194917125e-05
  56    4.6099844476692e-05
  57    -4.1406100351929e-05
  58    1.7923503757588e-06
  59    -5.8471491566429e-06
  60    5.3770937125687e-06
  61    7.048601480141e-05
  62    -0.0077004347029728
  63      0.00153316614086
  64    6.0928622681249e-05
  65    0.0061672754799779
  66    5.3183826057579e-09
  67    4.4290407552939e-09
  68    1.3221336937599e-05
  69    -4.6100167744242e-05
  70    4.1406471471146e-05
  71    -1.7923834671921e-06
  72    5.8472462991021e-06
  73    -5.3771917278527e-06
  74    7.0488487650968e-05
  75    -0.0077004534456577
  76    0.0015331698720561
  77    6.0930760625156e-05
  78    0.0061672904905963
 Sym= A
 Ene=               1
 Spin= Alpha
 Occup=    1.00000
   1    -9.159435907306e-07
   2    7.9575964566105e-07
   3    2.4638511819746e-07
   4    -1.0874575691002e-08
   5    3.6289746998919e-09
   6    7.2331589313808e-09
   7    1.8439405467244e-08
   8    -6.1582228659218e-09
   9    -1.2273719238472e-08
  10    -0.053542091290606
  11      0.18536511596835
  12     -0.55468189279678
  13     0.061944618290572
  14      0.36933560856393
  15    0.0040269806690538
  16    -0.0004386772769833
  17    0.0013123156535985
  18    -0.0046585991596006
  19    -0.00087387087092787
  20    2.1779387494118e-09
  21    3.9385648343353e-10
  22    -8.742277230781e-09
  23     8.17890462606e-09
  24    1.5074145801807e-13
  25    -3.8290193982111e-09
  26    5.3889580950551e-09
  27    8.7670525837709e-07
  28    -7.5214029178365e-07
  29    -3.1729431577259e-07
  30    1.0843700487373e-08
  31    -3.6272670784107e-09
  32    -7.2251593702455e-09
  33    -1.8432943038045e-08
  34    6.163095331554e-09
  35    1.2278923674466e-08
  36    -0.053496491642545
  37      0.18530189992533
  38     -0.55455382626719
  39     0.061886544651134
  40      0.36923076358524
  41    0.0040281140130024
  42    -0.00043742080645386
  43    0.0013095442869959
  44    -0.0046602177109983
  45    -0.00087182676218406
  46    -2.1783856704646e-09
  47    -3.970991353963e-10
  48    8.739641276749e-09
  49    -8.1762145865429e-09
  50    -2.0141705621641e-13
  51    3.8323336093298e-09
  52    -5.3870192124346e-09
  53    1.1828487077277e-08
  54    1.0717391066139e-08
  55    -2.7631062506496e-05
  56    5.251371045594e-06
  57    1.0814230251758e-05
  58    3.4245139523563e-06
  59    -4.955813305543e-07
  60    -1.1351375964248e-06
  61    -6.0917737595348e-05
  62    -0.0026755072388838
  63    0.0080065576953425
  64     7.04733207405e-05
  65    -0.0053310323773174
  66    1.1832102659826e-08
  67    1.0720918137523e-08
  68    2.7631377307859e-05
  69    -5.2513715221634e-06
  70     -1.0814287452e-05
  71    -3.4246132215025e-06
  72    4.9559592131943e-07
  73    1.1351764144912e-06
  74    -6.0919873635521e-05
  75    -0.0026755137513502
  76    0.0080065771835731
  77    7.0475792345788e-05
  78    -0.0053310453537773
 Sym= A
 Ene=               2
 Spin= Alpha
 Occup=    1.00000
   1    0.0034700641949846
   2    -0.0019291109793052
   3    -0.00055426436042711
   4    -1.1761738261934e-08
   5    -1.1738766789462e-08
   6    -1.1748750492073e-08
   7    2.0400882105741e-08
   8    2.0384785741312e-08
   9    2.0392638778241e-08
  10    -3.425711289332e-06
  11      0.40417102610251
  12      0.40401853135675
  13     4.55778417382e-05
  14      0.40410502733103
  15    -1.7485612382897e-07
  16    0.0021059493188962
  17     0.002109473736563
  18     2.05062829323e-06
  19    0.0021074820861768
  20    -6.378274305311e-09
  21    3.9044026035713e-09
  22    3.9065945729235e-09
  23    1.9795372974579e-12
  24    9.306775982578e-09
  25    -5.0392711505347e-09
  26    5.0453297802679e-09
  27    0.0034776112990141
  28    -0.0019356448522737
  29    -0.00055680895168014
  30    1.1698105527999e-08
  31    1.1720972372096e-08
  32    1.1711084456758e-08
  33    -2.0367172129159e-08
  34    -2.0375073890526e-08
  35    -2.0372505928522e-08
  36    4.3797401903986e-06
  37      0.40396213880944
  38      0.40411090087716
  39    -5.6119728667113e-05
  40      0.40402711662404
  41    1.136417698165e-07
  42    0.0021098314862276
  43    0.0021062713627913
  44    -1.4377381453323e-06
  45    0.0021082918932529
  46    6.3845288129332e-09
  47    -3.9108543335688e-09
  48    -3.9093388073289e-09
  49    2.5428586492247e-12
  50    -9.3065948777027e-09
  51    5.0507508355161e-09
  52    -5.0446417950025e-09
  53    -0.013585459580977
  54    -0.010542578549558
  55    -5.1283881789839e-05
  56    1.4865531389746e-05
  57    -1.3735045830398e-05
  58    6.8669554084053e-06
  59    -1.4933732337426e-06
  60    2.1164517814172e-06
  61    1.3921229654329e-09
  62    -0.0063023656777903
  63    -0.0063023460591398
  64    -2.0154300355422e-08
  65    -0.0063023613577695
  66    -0.013585394462609
  67    -0.010542576041302
  68    5.128460443696e-05
  69    -1.4865306343018e-05
  70    1.373548587605e-05
  71    -6.8671085797269e-06
  72    1.4933071556319e-06
  73    -2.1165554136909e-06
  74    1.3921923472243e-09
  75    -0.0063023790671683
  76    -0.0063023594485632
  77    -2.015405515962e-08
  78    -0.0063023747471853
 Sym= A
 Ene=               3
 Spin= Alpha
 Occup=    1.00000
   1    1.8258651538063e-07
   2    -5.5582843514363e-08
   3    6.3708509601405e-08
   4    1.6225319937167e-08
   5    -6.939586532214e-08
   6    5.3167509846039e-08
   7    -8.7085230618829e-09
   8    3.726064261691e-08
   9    -2.8546958003268e-08
  10     -0.20308115955396
  11     -0.46425897777379
  12      0.10858653495267
  13     -0.18878985062531
  14      0.35581248845845
  15    -0.0067606625378327
  16     0.010557341027635
  17    -0.002467735383234
  18    -0.006284874705912
  19    -0.0080890575391527
  20    -1.3743109142838e-08
  21    -6.8081792106268e-09
  22    -1.3809442553431e-08
  23    -8.2848139199165e-09
  24    7.4749929847987e-13
  25    -1.0579690441372e-08
  26    -1.1989484346032e-08
  27    6.4282781588521e-07
  28    -3.9083693139503e-07
  29    -1.846473328687e-07
  30    1.6229371429801e-08
  31    -6.9398600559824e-08
  32    5.317440079517e-08
  33    -8.7154604501843e-09
  34    3.7266375186462e-08
  35    -2.8558700460558e-08
  36      0.20307975089266
  37      0.46461046765938
  38     -0.10855619959842
  39      0.18879313056377
  40     -0.35592003345233
  41    0.0067565456098523
  42    -0.010556784218615
  43    0.0024683283434408
  44    0.0062814138188188
  45    0.0080894961905222
  46    -1.3740166260955e-08
  47    -6.8134553333273e-09
  48    -1.3810245593461e-08
  49    -8.2883938077031e-09
  50    -1.366166141032e-12
  51    -1.0581375634757e-08
  52    -1.1988078329141e-08
  53    -1.5585079107393e-06
  54    -1.1947800070961e-06
  55     0.045640823219701
  56      -0.1952411477065
  57      0.14959785695521
  58    -0.0057071485502615
  59     0.024414224875963
  60    -0.018706520848339
  61    -3.9761318273287e-07
  62    -2.7065055577447e-06
  63    -2.6539885644282e-07
  64    -2.9323014594359e-07
  65    8.2528889445373e-07
  66    -1.558500998491e-06
  67    -1.194779689017e-06
  68    -0.045641175025786
  69      0.19524265223868
  70     -0.14959900963032
  71    0.0057072102806787
  72    -0.024414488879473
  73     0.018706723121037
  74    -3.9761457161712e-07
  75    -2.7065111150486e-06
  76    -2.6539943741601e-07
  77    -2.9323137988142e-07
  78    8.2529050843971e-07
 Sym= A
 Ene=               4
 Spin= Alpha
 Occup=    1.00000
   1    2.0620547161884e-07
   2    -5.4471801856381e-08
   3    9.472450765252e-08
   4    7.0728139656536e-08
   5    -2.1327379843227e-08
   6    -4.9404509627462e-08
   7    -3.7988567696588e-08
   8    1.1455421721469e-08
   9    2.6539722690738e-08
  10      0.18877771143584
  11     -0.14269460662696
  12      0.47358291764168
  13     -0.20306772679573
  14      -0.3307124010012
  15    0.0062836798842218
  16    0.0032455131737315
  17    -0.010764733192721
  18    -0.0067593130098935
  19    0.0075198742627309
  20    1.276776516303e-08
  21    1.3345295235609e-08
  22    5.8207472187074e-09
  23    -8.9130572486954e-09
  24    1.0946662026216e-12
  25    -1.2787750426524e-08
  26    -1.1479362980936e-08
  27    8.2986290978932e-07
  28    -5.0595771423168e-07
  29    -2.4573393872367e-07
  30    7.0735626978147e-08
  31    -2.1325202321409e-08
  32    -4.9403980869449e-08
  33    -3.8004470944583e-08
  34    1.1453395053835e-08
  35    2.6541853461169e-08
  36     -0.18880408029552
  37      0.14285462405418
  38     -0.47362166669933
  39      0.20309150562641
  40      0.33093510798927
  41    -0.0062830916259103
  42    -0.0032449971410518
  43     0.010766076445953
  44    0.0067583010411949
  45    -0.0075197519572869
  46    1.2768961184246e-08
  47    1.3344382388668e-08
  48    5.822589877619e-09
  49    -8.9157511165524e-09
  50    -1.6055319581818e-12
  51    -1.2785193743589e-08
  52    -1.1482665785038e-08
  53    -1.9541029235243e-06
  54    -1.4985688979088e-06
  55      0.19909316106065
  56    -0.060020917151372
  57     -0.13907557854849
  58    -0.024895810117983
  59    0.0075054900466763
  60     0.017391072070025
  61    -1.4495342205976e-07
  62    -1.2283062237169e-06
  63    1.6856678763574e-07
  64    7.798579633181e-08
  65    -1.6316201744805e-06
  66    -1.9540946614639e-06
  67    -1.4985684169462e-06
  68     -0.19909469422851
  69      0.06002137946422
  70      0.13907664942941
  71     0.024896079203536
  72    -0.0075055711789868
  73    -0.017391260021725
  74    -1.4495298571177e-07
  75    -1.2283086604258e-06
  76    1.6856694947638e-07
  77    7.7985257433073e-08
  78    -1.6316234833704e-06
 Sym= A
 Ene=               5
 Spin= Alpha
 Occup=    1.00000
   1     0.042917621186156
   2    -0.037182954738045
   3    -0.014404502247379
   4    2.0414515497613e-07
   5    2.0413816559145e-07
   6    2.0413853570331e-07
   7    -1.4223055327389e-07
   8    -1.4222275706884e-07
   9    -1.4222613354423e-07
  10    -1.1324377290983e-07
  11     -0.36372327106908
  12     -0.36374368138205
  13    9.3961053959841e-07
  14     -0.36373224863284
  15    7.8266023344091e-08
  16    0.0029985516493479
  17    0.0029983811179026
  18    -8.1606293861054e-07
  19    0.0029984760109416
  20    -4.2479634173338e-08
  21    2.6015000790428e-08
  22    2.6012949196721e-08
  23    2.0808033401708e-13
  24    -5.0498937317947e-10
  25    -3.3584855483353e-08
  26    3.3582596415366e-08
  27     -0.04291702568558
  28     0.037182599463559
  29     0.014404441282759
  30    2.041466809311e-07
  31    2.0413900086669e-07
  32    2.0413964220356e-07
  33    -1.4224694765989e-07
  34    -1.4223819685103e-07
  35    -1.4224205298864e-07
  36    -2.3604473806134e-07
  37      0.36381707074548
  38      0.36379122480779
  39    1.7648445077897e-06
  40       0.3638060021141
  41    -3.9636564984788e-08
  42    -0.0029981613300007
  43    -0.0029981224106078
  44    3.8096605791588e-07
  45    -0.0029981430020277
  46    -4.2478404517573e-08
  47    2.6013943267801e-08
  48    2.6012442812378e-08
  49    -1.5073071763481e-13
  50    -5.0597292433217e-10
  51    -3.3583820393939e-08
  52    3.3581624803794e-08
  53    -1.1732583168659e-06
  54    -9.2659083612248e-07
  55      0.18985093816107
  56      0.18984267374995
  57      0.18984611536209
  58    -0.028465736997047
  59    -0.028464307906183
  60    -0.028464906268221
  61    9.2318617456923e-10
  62    -7.2229327563527e-07
  63    -3.6906419525466e-07
  64    -2.2491439903324e-08
  65    -5.6897429070488e-07
  66    -1.1732109832335e-06
  67    -9.2661292369277e-07
  68     -0.18985585526334
  69     -0.18984759070067
  70     -0.18985103230363
  71       0.0284666308333
  72     0.028465201707227
  73     0.028465800071019
  74    9.2325255423868e-10
  75    -7.2229418973129e-07
  76    -3.6906410347199e-07
  77    -2.2491710801296e-08
  78    -5.6897481115478e-07
 Sym= A
 Ene=               6
 Spin= Alpha
 Occup=    1.00000
   1    -1.5171108289088e-07
   2    -4.9273620647452e-08
   3    2.5627174817887e-07
   4    3.5789844854678e-09
   5    -1.5642925194535e-08
   6    1.2065486648341e-08
   7    -8.762198211448e-09
   8    3.8333229364809e-08
   9    -2.9577524791846e-08
  10     -0.53914532086252
  11     0.072622648187481
  12    -0.016605013583313
  13        -0.49574041456
  14    -0.056023344158032
  15     -0.03882156636036
  16     0.012489731235631
  17    -0.0028552749486076
  18    -0.035694216541039
  19    -0.0096353785869639
  20    -9.165455753436e-09
  21    -3.0743727430203e-09
  22    -8.7276138454816e-09
  23    -4.1560115096928e-09
  24    -1.0738185328452e-13
  25    -5.8170292411593e-09
  26    -8.2684762056153e-09
  27    -1.884296440876e-07
  28    -7.1708963400044e-08
  29    2.3914317671302e-07
  30    -3.552603145112e-09
  31    1.5560452213081e-08
  32    -1.2009733678844e-08
  33    8.7447618880455e-09
  34    -3.8280589239686e-08
  35    2.9542552323259e-08
  36     -0.53873162362463
  37       0.0725093753921
  38    -0.016568164011769
  39     -0.49526416652652
  40    -0.055948118572963
  41    -0.038809217963527
  42     0.012478927413986
  43    -0.0028517161530438
  44     -0.03567985613561
  45    -0.0096281417475188
  46    9.1451643539635e-09
  47    3.0763076456973e-09
  48    8.7082270312349e-09
  49    4.1519358930106e-09
  50    1.187027127623e-13
  51    5.8060806403671e-09
  52    8.2452198219224e-09
  53    4.0254826228561e-07
  54    1.8816700142356e-07
  55    -6.7610453052833e-05
  56    0.00020552752002892
  57    -0.00013823104037172
  58    1.520655054182e-05
  59    -4.6178661973965e-05
  60    3.1011397047777e-05
  61    -0.015811520345878
  62    -0.0059503290468056
  63    0.0013599636018773
  64    -0.014537180370454
  65    0.0045906445934994
  66    4.0253325020037e-07
  67    1.8816289094375e-07
  68    6.7610206484343e-05
  69    -0.00020552674322924
  70    0.0001382305130831
  71    -1.5206462220809e-05
  72    4.6178382356494e-05
  73    -3.1011206321404e-05
  74    -0.015811555400148
  75    -0.0059503317731168
  76    0.0013599642237059
  77    -0.014537212594255
  78     0.004590646698681
 Sym= A
 Ene=               7
 Spin= Alpha
 Occup=    1.00000
   1    2.0221810563695e-07
   2    6.8101114968297e-08
   3    -3.3967572334336e-07
   4    -1.5944802064383e-08
   5    4.882688520308e-09
   6    1.1060844756267e-08
   7    3.9200222048067e-08
   8    -1.2006378418521e-08
   9    -2.7188690401969e-08
  10     -0.49545463457234
  11    -0.022732646425271
  12     0.074199705490611
  13      0.53883873567401
  14    -0.051459265472322
  15    -0.035685905068588
  16    -0.0039118648048272
  17     0.012766915071846
  18     0.038812649620267
  19    -0.0088538023265768
  20    -8.4185903753456e-09
  21    -8.4902707916224e-09
  22    -2.3532665780479e-09
  23    4.5178778725525e-09
  24    1.2116780114795e-13
  25    8.7746986558494e-09
  26    6.5252953134447e-09
  27    2.5677872628961e-07
  28    9.3934881060517e-08
  29    -3.2478076053683e-07
  30    1.597753137015e-08
  31    -4.8992101954073e-09
  32    -1.1076607701819e-08
  33    -3.9229595206878e-08
  34    1.2020126931028e-08
  35    2.720391843609e-08
  36     -0.49555070394769
  37    -0.022754578545843
  38     0.074238866294177
  39      0.53903903031995
  40    -0.051475417309701
  41    -0.035688273273453
  42    -0.003914028639268
  43     0.012770708543847
  44     0.038818248898799
  45    -0.0088554583484526
  46    8.4253492785187e-09
  47    8.4985184191355e-09
  48    2.3504813860233e-09
  49    -4.5196854452357e-09
  50    -1.1835369418221e-13
  51    -8.7854765892978e-09
  52    -6.5316216709465e-09
  53    -5.3974581433478e-07
  54    -2.5125350371191e-07
  55    -7.472227327319e-05
  56    4.1405683627897e-05
  57    3.3659225014245e-05
  58    1.6813400642708e-05
  59    -9.3260992980708e-06
  60    -7.5378861186872e-06
  61    -0.014537187806522
  62    0.0018650881866205
  63    -0.0060858618946864
  64     0.015811528925921
  65    0.0042204028453399
  66    -5.3973432264836e-07
  67    -2.5125042279068e-07
  68    7.4721937997471e-05
  69    -4.1405521642966e-05
  70    -3.3659058352523e-05
  71    -1.6813313365348e-05
  72    9.3260511548334e-06
  73    7.5378482225145e-06
  74    -0.014537220058076
  75    0.0018650890436862
  76    -0.0060858646976802
  77     0.015811563998925
  78    0.0042204047901458
 Sym= A
 Ene=               8
 Spin= Alpha
 Occup=    1.00000
   1    1.5903749004398e-08
   2    -5.7661394551911e-08
   3    4.9283002396951e-08
   4    5.7258752435586e-08
   5    2.643115367832e-08
   6    -8.3690462051538e-08
   7    -3.9288862798615e-08
   8    -1.8117577879993e-08
   9    5.7406610549472e-08
  10      0.62038686477547
  11    -0.027770914559224
  12    -0.060263269519742
  13     -0.13225495939185
  14     0.088032067764134
  15     0.019476563078592
  16    -0.0035412796074309
  17    -0.007687015797033
  18    -0.0041607133622314
  19     0.011228002031976
  20    3.1334650953593e-08
  21    1.6541682148981e-08
  22    1.0427239956447e-08
  23    -1.2097910073458e-09
  24    -3.5847961159301e-14
  25    -1.4307592076494e-08
  26    4.4375663268882e-09
  27    -1.6997299517183e-08
  28    3.9450698325805e-08
  29    -2.4703280442829e-09
  30    5.7251256999082e-08
  31    2.6439133170926e-08
  32    -8.3691154231557e-08
  33    -3.9268983894228e-08
  34    -1.813483662679e-08
  35    5.7404252572273e-08
  36     -0.62054346339771
  37      0.02781415887554
  38     0.060236430055335
  39      0.13188877550229
  40      -0.0880487995919
  41    -0.019487702638571
  42    0.0035485276697366
  43     0.007682516972751
  44    0.0041332242596159
  45    -0.011230775217973
  46    3.1337525540629e-08
  47    1.6540393159033e-08
  48    1.0429925313874e-08
  49    -1.2064823283704e-09
  50    -3.032614098836e-14
  51    -1.4303581613337e-08
  52    4.4440617018425e-09
  53    3.3971092459036e-08
  54    1.8113578712087e-08
  55      -0.2665741584419
  56     -0.12295973594089
  57       0.3895346541665
  58     0.060537258146131
  59     0.027923336764772
  60    -0.088460616196217
  61    -2.2857275204653e-06
  62    -1.7493468638113e-06
  63    1.0869403942349e-06
  64    -5.514936247712e-06
  65    6.6653537621442e-07
  66    3.3971244829146e-08
  67    1.8113595192898e-08
  68      0.26657306121388
  69      0.12295922939109
  70     -0.38953305037015
  71    -0.060536898379916
  72    -0.027923170631314
  73     0.088460090293054
  74    -2.2857326778072e-06
  75    -1.749348094938e-06
  76    1.0869408869341e-06
  77    -5.5149486068903e-06
  78    6.6653607672298e-07
 Sym= A
 Ene=               9
 Spin= Alpha
 Occup=    1.00000
   1    -6.2368458725723e-08
   2    1.8296200631437e-07
   3    -1.4907954928088e-07
   4    -6.3572969176104e-08
   5    8.1409005108041e-08
   6    -1.7829147816895e-08
   7    4.361024075381e-08
   8    -5.5823893037182e-08
   9    1.2210729030127e-08
  10      0.13176026105081
  11    -0.085583813182526
  12     0.066881379068071
  13       0.6203208420057
  14      0.01870902829177
  15    0.0041241161258187
  16     -0.01091489326615
  17    0.0085307344791565
  18     0.019471681833463
  19    0.0023850325896779
  20    6.6714838535936e-09
  21    -1.1502738415323e-08
  22    1.7244442727957e-08
  23    5.6825902843854e-09
  24    4.8391418386578e-14
  25    2.119880868624e-08
  26    2.5193260557783e-08
  27    4.8232313940495e-08
  28    -1.2492771996658e-07
  29     1.26027291969e-08
  30    -6.3569220633896e-08
  31    8.141889118887e-08
  32    -1.7842558775151e-08
  33    4.3598759013542e-08
  34    -5.5843842899165e-08
  35    1.2241268569178e-08
  36     -0.13238243954814
  37     0.085645234716914
  38    -0.066873982281179
  39     -0.62060929109574
  40    -0.018777105340161
  41    -0.0041697394929073
  42     0.010925010066712
  43    -0.0085296010002679
  44    -0.019492574907833
  45    -0.0023962976169818
  46    6.6821728872797e-09
  47    -1.149851499808e-08
  48    1.7253378885913e-08
  49    5.6834772559949e-09
  50    5.4630495658522e-14
  51    2.1200881658795e-08
  52    2.5198655637576e-08
  53    -9.7703657293973e-08
  54    -4.8650561543411e-08
  55      0.29588789908333
  56     -0.37880546595025
  57     0.082915144053804
  58    -0.067194290207357
  59     0.086023960096559
  60      -0.0188296088679
  61    -9.1864358476413e-06
  62    -2.4279244037147e-06
  63    -2.7158886846418e-07
  64    -4.2467570096244e-06
  65    2.695086833397e-06
  66    -9.7703375683444e-08
  67    -4.8650608684708e-08
  68     -0.29588668085943
  69      0.37880390583357
  70    -0.082914802310807
  71     0.067193890730366
  72    -0.086023448475164
  73     0.018829496764328
  74    -9.1864566236642e-06
  75    -2.4279260283242e-06
  76    -2.7158891165937e-07
  77    -4.246766617213e-06
  78    2.6950883688832e-06
