[Molden Format]
made by pyscf v[2.7.0]
[Atoms] (AU)
Ni   1   18     0.00000000000000     0.00000000000000     0.00000000000000
Ni   2   18     7.88015793943631     7.88015793943631     7.88015793943631
O   3   6     3.94007896971815     3.94007896971815     3.94007896971815
O   4   6    11.82023690915446    11.82023690915446    11.82023690915446
[GTO]
1 0
 s    5 1.00
       10.077427756816   -0.16816538591041
        5.847735848326   -0.31203986825241
        2.494032826008    0.76231213094128
        0.988354848429    0.55437604679043
        0.344978242158    0.03155701098717
 s    5 1.00
       10.077427756816   0.058000950062097
        5.847735848326    0.14653254811322
        2.494032826008   -0.50777581008225
        0.988354848429    -1.0938070247199
        0.344978242158    0.66529670756055
 s    5 1.00
       10.077427756816  0.0053460448296085
        5.847735848326   -0.08418457883001
        2.494032826008  0.0015718453997724
        0.988354848429   -0.87757432617674
        0.344978242158     1.5777647329419
 p    5 1.00
       10.077427756816   -0.12236774170237
        5.847735848326    0.23342048133724
        2.494032826008    0.52638460167342
        0.988354848429    0.39425731817561
        0.344978242158   0.051608556148131
 p    5 1.00
       10.077427756816  -0.012616972687739
        5.847735848326  -0.025194607896872
        2.494032826008   -0.22268415555677
        0.988354848429   -0.22497484726751
        0.344978242158     1.1712751328261
 d    5 1.00
       10.077427756816    0.08918252306285
        5.847735848326    0.25567343360121
        2.494032826008     0.3554995300545
        0.988354848429    0.34934981895974
        0.344978242158    0.26737625455372
 d    5 1.00
       10.077427756816  -0.093993451492197
        5.847735848326   -0.36074197756838
        2.494032826008    -0.5570889903816
        0.988354848429   -0.15334190860524
        0.344978242158    0.42481173879085
 f    5 1.00
       10.077427756816  -0.0083683152125103
        5.847735848326    0.03763133075813
        2.494032826008   0.027363949027932
        0.988354848429    0.87387054931809
        0.344978242158    0.16755768848104

2 0
 s    5 1.00
       10.077427756816   -0.16816538591041
        5.847735848326   -0.31203986825241
        2.494032826008    0.76231213094128
        0.988354848429    0.55437604679043
        0.344978242158    0.03155701098717
 s    5 1.00
       10.077427756816   0.058000950062097
        5.847735848326    0.14653254811322
        2.494032826008   -0.50777581008225
        0.988354848429    -1.0938070247199
        0.344978242158    0.66529670756055
 s    5 1.00
       10.077427756816  0.0053460448296085
        5.847735848326   -0.08418457883001
        2.494032826008  0.0015718453997724
        0.988354848429   -0.87757432617674
        0.344978242158     1.5777647329419
 p    5 1.00
       10.077427756816   -0.12236774170237
        5.847735848326    0.23342048133724
        2.494032826008    0.52638460167342
        0.988354848429    0.39425731817561
        0.344978242158   0.051608556148131
 p    5 1.00
       10.077427756816  -0.012616972687739
        5.847735848326  -0.025194607896872
        2.494032826008   -0.22268415555677
        0.988354848429   -0.22497484726751
        0.344978242158     1.1712751328261
 d    5 1.00
       10.077427756816    0.08918252306285
        5.847735848326    0.25567343360121
        2.494032826008     0.3554995300545
        0.988354848429    0.34934981895974
        0.344978242158    0.26737625455372
 d    5 1.00
       10.077427756816  -0.093993451492197
        5.847735848326   -0.36074197756838
        2.494032826008    -0.5570889903816
        0.988354848429   -0.15334190860524
        0.344978242158    0.42481173879085
 f    5 1.00
       10.077427756816  -0.0083683152125103
        5.847735848326    0.03763133075813
        2.494032826008   0.027363949027932
        0.988354848429    0.87387054931809
        0.344978242158    0.16755768848104

3 0
 s    5 1.00
       10.389228018317   0.096173629276308
        3.849621072005    0.10660531634684
        1.388401188741   -0.33089834130169
        0.496955043655    -0.6496800688702
         0.16249161504   -0.18463001807573
 s    5 1.00
       10.389228018317   0.073630541584408
        3.849621072005    0.12300997725073
        1.388401188741   -0.34343118342323
        0.496955043655   -0.10206354789477
         0.16249161504     1.1731714191581
 p    5 1.00
       10.389228018317  -0.057562550918086
        3.849621072005    -0.1784919811951
        1.388401188741   -0.35468525474322
        0.496955043655   -0.42655539522159
         0.16249161504    -0.2416879946641
 p    5 1.00
       10.389228018317  -0.021265755186923
        3.849621072005  -0.0049739296849897
        1.388401188741    -0.1779930881255
        0.496955043655    0.30108256988861
         0.16249161504    0.83447656856867
 d    5 1.00
       10.389228018317   0.018871300922529
        3.849621072005   0.038532527740515
        1.388401188741    0.46305094876991
        0.496955043655    0.56500599531169
         0.16249161504   0.096713771818926

4 0
 s    5 1.00
       10.389228018317   0.096173629276308
        3.849621072005    0.10660531634684
        1.388401188741   -0.33089834130169
        0.496955043655    -0.6496800688702
         0.16249161504   -0.18463001807573
 s    5 1.00
       10.389228018317   0.073630541584408
        3.849621072005    0.12300997725073
        1.388401188741   -0.34343118342323
        0.496955043655   -0.10206354789477
         0.16249161504     1.1731714191581
 p    5 1.00
       10.389228018317  -0.057562550918086
        3.849621072005    -0.1784919811951
        1.388401188741   -0.35468525474322
        0.496955043655   -0.42655539522159
         0.16249161504    -0.2416879946641
 p    5 1.00
       10.389228018317  -0.021265755186923
        3.849621072005  -0.0049739296849897
        1.388401188741    -0.1779930881255
        0.496955043655    0.30108256988861
         0.16249161504    0.83447656856867
 d    5 1.00
       10.389228018317   0.018871300922529
        3.849621072005   0.038532527740515
        1.388401188741    0.46305094876991
        0.496955043655    0.56500599531169
         0.16249161504   0.096713771818926

[5d]
[7f]
[9g]
[core]
1 : 10
2 : 10
3 : 2
4 : 2

[MO]
 Sym= A
 Ene=               0
 Spin= Alpha
 Occup=    1.00000
   1      0.63605036690943
   2     -0.06726303017036
   3     0.020268461923447
   4    1.4061954348349e-08
   5    1.4060486855414e-08
   6    1.4061367697267e-08
   7    8.5420932641968e-10
   8    8.5456827005435e-10
   9    8.5432481440245e-10
  10    -4.1149158582303e-09
  11    -0.00058548821756733
  12    -0.00058553785653658
  13    5.6142048736914e-08
  14    -0.00058550730850501
  15    4.9896116067346e-09
  16    0.00071018427155781
  17     0.000710237844317
  18    -6.8483942680095e-08
  19    0.00071020479949194
  20    1.7691237891522e-10
  21    -1.0828367907844e-10
  22    -1.0837968585061e-10
  23    9.4478355483038e-14
  24    -9.1636509244418e-11
  25    1.3989103229922e-10
  26    -1.3985977621986e-10
  27      0.63896920647318
  28    -0.067568575716307
  29     0.020360285660579
  30    -1.4127210472342e-08
  31    -1.4125540609553e-08
  32    -1.4126736938809e-08
  33    -8.616552581789e-10
  34    -8.6214843271619e-10
  35    -8.6184243905742e-10
  36    2.564282600843e-09
  37    -0.000578303248246
  38    -0.00057833570682868
  39    -3.0159127986571e-08
  40    -0.00057831543910342
  41    -3.8020037341715e-09
  42    0.00072241717407085
  43    0.00072245272494475
  44    4.227578348948e-08
  45    0.00072243047484283
  46    -1.7953430293991e-10
  47    1.0987734540112e-10
  48    1.099933277758e-10
  49    -9.5993053021949e-14
  50    9.208587321875e-11
  51    -1.4195043291966e-10
  52    1.4194331771476e-10
  53    7.0429488893847e-05
  54    0.0060239608390274
  55    -1.569751849812e-07
  56    -1.5566810628503e-07
  57    -1.5620755674863e-07
  58    -8.4148835170954e-06
  59    -8.4304581860331e-06
  60    -8.4237307532718e-06
  61    2.2202384800059e-10
  62    -5.8625906463819e-06
  63    -5.8575640858237e-06
  64    -1.4557187542273e-09
  65    -5.8606382580065e-06
  66    7.0428189980418e-05
  67    0.0060239590468684
  68    1.569709271497e-07
  69    1.5566385792725e-07
  70    1.5620330241714e-07
  71    8.4148666355627e-06
  72    8.4304412061205e-06
  73    8.4237138146316e-06
  74    2.221350235903e-10
  75    -5.8624878460236e-06
  76    -5.857460698852e-06
  77    -1.4550220992399e-09
  78    -5.8605350905494e-06
 Sym= A
 Ene=               1
 Spin= Alpha
 Occup=    1.00000
   1      0.63916667509403
   2    -0.066910757738961
   3     0.020111004972076
   4    1.4079710582761e-08
   5    1.407827816032e-08
   6    1.4079136475534e-08
   7    7.0944432186172e-10
   8    7.0981285165019e-10
   9    7.0956260185914e-10
  10    -4.0070432329457e-09
  11    0.0015701661631355
  12    0.0015701167320606
  13    5.3494217737973e-08
  14    0.0015701470507039
  15    4.5623275140272e-09
  16    0.0026722138348658
  17    0.0026722698493146
  18    -6.4750301715326e-08
  19    0.0026722352805649
  20    1.3554141350215e-10
  21    -8.2932747239312e-11
  22    -8.3068608892328e-11
  23    1.047648690339e-13
  24    -9.8760033082198e-11
  25    1.0717345624615e-10
  26    -1.0717697568607e-10
  27     -0.63624875262426
  28     0.066602187020313
  29    -0.020018011086184
  30    1.4015829423093e-08
  31    1.401420354071e-08
  32    1.4015370807228e-08
  33    7.0873760260832e-10
  34    7.0922938693802e-10
  35    7.089208121584e-10
  36    -3.2414503792265e-09
  37    -0.0015728214501542
  38    -0.0015727880792457
  39    3.8336296062188e-08
  40    -0.0015728087487905
  41    3.604578188632e-09
  42    -0.0026689448080705
  43    -0.0026689805405971
  44    -3.822344612538e-08
  45    -0.0026689580586731
  46    1.3498856616099e-10
  47    -8.2585056237507e-11
  48    -8.2736040143677e-11
  49    1.0475669059292e-13
  50    -9.8457112945071e-11
  51    1.0672539869894e-10
  52    -1.067490776527e-10
  53    1.606742790855e-07
  54    1.3783923093588e-05
  55    6.8223541056498e-05
  56    6.8226870813567e-05
  57    6.8225456602241e-05
  58    0.0036800784828087
  59     0.003680082500133
  60    0.0036800814366207
  61    -3.2599441820068e-10
  62    -1.448419219365e-08
  63    -1.2189320562548e-08
  64    4.213480303277e-09
  65    -1.3523228242724e-08
  66    1.606740102777e-07
  67    1.3783927606275e-05
  68    -6.8223331906108e-05
  69    -6.8226661895275e-05
  70    -6.8225247540771e-05
  71    -0.003680078513694
  72      -0.0036800825295
  73    -0.0036800814669757
  74    -3.2599256846038e-10
  75    -1.4484546794252e-08
  76    -1.2189673798923e-08
  77    4.2134534689634e-09
  78    -1.3523583857048e-08
 Sym= A
 Ene=               2
 Spin= Alpha
 Occup=    1.00000
   1    -2.0250839415757e-12
   2    1.0170678207076e-13
   3    7.674842614898e-14
   4        0.104649549052
   5     -0.54466525601758
   6       0.4400695148428
   7    -0.00095637766155434
   8    0.0049774113233729
   9    -0.0040216318747783
  10    7.9654901202731e-09
  11    5.6585004428293e-09
  12    -1.0865483810022e-09
  13    6.7864520713928e-09
  14    -4.5709021024946e-09
  15    9.0048029017136e-10
  16    -4.0085374348189e-10
  17    7.7575702420908e-11
  18    7.664483161549e-10
  19    3.2400342722129e-10
  20    -0.0018022060952741
  21    0.00070871401857006
  22    -0.0012139214846472
  23    0.0003722413006788
  24    -3.2972421300428e-08
  25    6.8661870264827e-06
  26    -0.0018811743523549
  27    -9.7907703282493e-13
  28    1.2516566824829e-13
  29    -2.4982926990612e-13
  30     -0.10465236609513
  31      0.54481247887729
  32     -0.44015650977845
  33    0.00095645318938123
  34    -0.0049789564461347
  35    0.0040225960443472
  36    7.9612040628685e-09
  37    5.6621457293463e-09
  38    -1.0877371590622e-09
  39    6.7826981415273e-09
  40    -4.5745695939287e-09
  41    8.9465103897522e-10
  42    -3.9875619080319e-10
  43    7.7232124895065e-11
  44    7.6152763290356e-10
  45    3.2237792428144e-10
  46     0.001802667284258
  47    -0.00070882495241229
  48    0.0012143931206627
  49    -0.00037224520582296
  50    4.2846682088592e-09
  51    -6.9137239658374e-06
  52     0.001881765609797
  53    1.1747348165173e-07
  54    -1.153091483673e-07
  55    -4.5992388242971e-08
  56    4.7299788457888e-07
  57    -3.0005462497065e-07
  58    4.5420108049064e-08
  59    -6.2529843464765e-07
  60    4.2101607123439e-07
  61    -0.0024066599898914
  62    0.00034098195594844
  63    -6.5487086902281e-05
  64    -0.0020502361480257
  65    -0.00027546311998656
  66    -1.1747500264918e-07
  67    1.1531002002892e-07
  68    -4.5992046802121e-08
  69    4.7299624067176e-07
  70    -3.0005325111338e-07
  71    4.5422722715417e-08
  72    -6.253120172186e-07
  73    4.2102705639046e-07
  74    0.0024066601130808
  75    -0.00034098166595638
  76    6.5487031293091e-05
  77    0.0020502362526695
  78    0.00027546288550252
 Sym= A
 Ene=               3
 Spin= Alpha
 Occup=    1.00000
   1    2.4629964516392e-12
   2    -8.1965030321691e-14
   3    -2.5256905213394e-13
   4     -0.56859304989031
   5      0.19363706674779
   6      0.37487925923801
   7    0.0051962237271159
   8    -0.0017695250174153
   9    -0.0034258394460472
  10    6.7844635992627e-09
  11    -2.0122515758679e-09
  12    5.9058013250625e-09
  13    -7.9645054343077e-09
  14    -3.8950265236944e-09
  15    7.690488064639e-10
  16    1.4211063634446e-10
  17    -4.1717402536922e-10
  18    -9.0192871272702e-10
  19    2.7448321328401e-10
  20    -0.0015352638528263
  21    -0.0013438316970161
  22    0.00091313647705052
  23    -0.00043687667202995
  24    4.9940450312449e-08
  25    0.0019044990384047
  26    0.00029577136610409
  27    7.1942429953321e-13
  28    -8.7741137397608e-14
  29    2.171216950521e-13
  30      0.56864058938971
  31     -0.19369651057858
  32     -0.37494688992145
  33    -0.0051967643851379
  34    0.0017700984259756
  35    0.0034265069287425
  36    6.7795787694684e-09
  37    -2.0130448003388e-09
  38    5.9098850778258e-09
  39    -7.9589868465913e-09
  40    -3.896729291799e-09
  41    7.6443062545527e-10
  42    1.4118390845731e-10
  43    -4.1458507529786e-10
  44    -8.9660923253526e-10
  45    2.7270439258564e-10
  46    0.0015356075673645
  47    0.0013439621174236
  48    -0.00091336687426902
  49    0.00043698991119184
  50    -1.0074371974728e-08
  51    -0.0019047401168814
  52    -0.00029596013663942
  53    -1.7371553467009e-07
  54    1.7046318652375e-07
  55    1.5554478747111e-07
  56    -1.4524798958903e-07
  57    -1.8626061799167e-07
  58    -2.6277787107054e-07
  59    2.2122523813786e-07
  60    2.6061089435784e-07
  61    -0.002050233787506
  62    -0.00012124670482065
  63    0.00035589569091438
  64    0.0024066568291013
  65    -0.00023469496662404
  66    1.7371693260065e-07
  67    -1.7046389899935e-07
  68    1.5554272139259e-07
  69    -1.4524734296466e-07
  70    -1.8625929832068e-07
  71    -2.6279215544311e-07
  72    2.2123006782176e-07
  73    2.6062031829338e-07
  74     0.002050233893407
  75    0.00012124660155059
  76    -0.00035589538722314
  77    -0.0024066569530582
  78     0.000234694766296
 Sym= A
 Ene=               4
 Spin= Alpha
 Occup=    1.00000
   1    2.6031995600598e-08
   2    -8.932624441808e-11
   3    -6.1715861134548e-09
   4      -0.4082095663271
   5     -0.40793283698972
   6     -0.40805377509818
   7    0.0054038642544635
   8    0.0054008604960677
   9    0.0054021704786263
  10    1.4439678934672e-13
  11    -7.8863212068188e-09
  12    -7.882564184369e-09
  13    -4.0739080818708e-12
  14    -7.8845305966657e-09
  15    -1.0873289114147e-13
  16    5.7279045152178e-10
  17    5.7144084487796e-10
  18    -1.2838876035143e-12
  19    5.7186130206065e-10
  20    0.0016323787886554
  21    -0.0010002170174694
  22    -0.00099913774875025
  23    -1.610672947454e-07
  24    0.00034226957545097
  25    0.0012911530040466
  26    -0.0012900355411834
  27    2.6030595493023e-08
  28    -1.0043543046593e-10
  29    -6.1535498753832e-09
  30      0.40798476385073
  31      0.40833406280311
  32      0.40818372717607
  33    -0.0054012597655914
  34     -0.00540488384545
  35    -0.0054033222904322
  36    -4.6479143552258e-13
  37    -7.8910739917933e-09
  38    -7.8939773230883e-09
  39    3.1774119590385e-12
  40    -7.8921377164497e-09
  41    -1.5748505536839e-13
  42    5.6776624274359e-10
  43    5.6603370810743e-10
  44    -1.797270506689e-13
  45    5.6672021083185e-10
  46    -0.0016329732529581
  47    0.0009993217716069
  48    0.0010005330702341
  49    -2.1763968891403e-07
  50    -0.00034237697241941
  51    -0.0012902654190464
  52    0.0012914867271056
  53    -0.0058550608374828
  54    0.0057233874440071
  55    -8.1808614031355e-07
  56    1.1762854754312e-06
  57    3.1274801899387e-07
  58    1.1810353674806e-06
  59    -1.6197359755148e-06
  60    -4.0677524467968e-07
  61    1.1428312334535e-08
  62    -0.0004223724011116
  63    -0.00042239677610697
  64    -1.0268358645955e-07
  65    -0.00042238233392777
  66    0.0058550677016336
  67    -0.0057233847599537
  68    -8.1808974799414e-07
  69    1.1762838289212e-06
  70    3.1274552725774e-07
  71    1.1810250389583e-06
  72    -1.6197452928374e-06
  73    -4.0678501713174e-07
  74    -1.142842433297e-08
  75     0.000422372077746
  76    0.00042239645175159
  77    1.0268287300612e-07
  78    0.00042238200994511
 Sym= A
 Ene=               5
 Spin= Alpha
 Occup=    1.00000
   1    -3.7151212299822e-12
   2    -1.931283353591e-13
   3    1.3892790421828e-12
   4     -0.11318186014844
   5      0.54761496160794
   6     -0.43422008865026
   7    0.0011914805517209
   8    -0.0057660556825479
   9    0.0045717070695731
  10    -8.7724770473577e-09
  11    -5.9123987797647e-09
  12    1.224170752383e-09
  13    -7.7069240643724e-09
  14    4.6916157650253e-09
  15    -1.3805966830669e-09
  16    1.1108111496117e-10
  17    -2.4035798420189e-11
  18    -1.212314280632e-09
  19    -8.8799139581961e-11
  20    0.0022696016669213
  21    -0.00074823781542064
  22    0.0016264806869236
  23    -0.00032857263082148
  24    -4.0169338225796e-08
  25    0.00016879510774023
  26    0.0023604600862794
  27    -6.2246409696188e-12
  28    2.9174152453671e-13
  29    8.2965774533524e-13
  30     -0.11330101922254
  31      0.54732896209198
  32     -0.43427591606347
  33    0.0011931913239803
  34    -0.0057628475680783
  35    0.0045728547276926
  36    8.7707265447999e-09
  37    5.9139461317931e-09
  38    -1.220900847133e-09
  39    7.7051454136868e-09
  40    -4.6876125794864e-09
  41    1.3798579725237e-09
  42    -1.1145816486104e-10
  43    2.387987305056e-11
  44    1.2117062416845e-09
  45    8.875000622658e-11
  46    0.0022698101690145
  47    -0.00074841896864097
  48    0.0016258465952983
  49    -0.00032841030345238
  50    7.9633892905218e-08
  51    0.00016924528972083
  52    0.0023594897490923
  53    1.0993892367902e-06
  54    -1.0733247269265e-06
  55    -0.00072036376406037
  56    0.0034827206597333
  57    -0.0027624212666352
  58    0.0010145740388912
  59    -0.0049051554461735
  60    0.0038906582092016
  61    2.6811608822247e-07
  62    3.9145421857074e-08
  63    9.0437745654159e-08
  64    2.6234999053036e-07
  65    1.0700344390004e-07
  66    -1.0993905632191e-06
  67    1.0733242406249e-06
  68    -0.00072036448138522
  69    0.0034827241297501
  70    -0.0027624240207692
  71    0.0010145736497385
  72    -0.0049051535642965
  73    0.0038906567184561
  74    -2.6811591366618e-07
  75    -3.914531481839e-08
  76    -9.0437691630347e-08
  77    -2.6234984554213e-07
  78    -1.0700341474612e-07
 Sym= A
 Ene=               6
 Spin= Alpha
 Occup=    1.00000
   1    5.2358471678509e-12
   2    1.3999565766962e-13
   3    -1.643852257828e-12
   4       0.5667381096342
   5     -0.18543708050084
   6     -0.38158271720939
   7    -0.0059669804221513
   8    0.0019527695815313
   9    0.0040180116485713
  10    -7.7041011375429e-09
  11    2.0002414020322e-09
  12    -6.1241544088443e-09
  13    8.7706402851482e-09
  14    4.1190656091624e-09
  15    -1.2141586107723e-09
  16    -3.6813254516184e-11
  17     1.13723632512e-10
  18    1.3815820964999e-09
  19    -7.5302617525775e-11
  20      0.00199431253027
  21    0.0017369366028849
  22    -0.00096616242813292
  23    0.00037391230985389
  24    4.8871492015213e-08
  25    -0.002401586285574
  26    -0.00047745568499199
  27    7.717691446143e-12
  28    -2.4569123050215e-13
  29    -1.292733616746e-12
  30      0.56687134552091
  31     -0.18521241390606
  32     -0.38132653800358
  33    -0.0059690178545037
  34    0.0019498949422401
  35    0.0040148433810124
  36    7.7027551706487e-09
  37    -2.0039977688529e-09
  38    6.1194558189883e-09
  39    -8.7691764848559e-09
  40    -4.122438519929e-09
  41    1.214073556441e-09
  42    3.7021438841073e-11
  43    -1.1320735133845e-10
  44    -1.3815659860122e-09
  45    7.5420674732796e-11
  46    0.0019932901451156
  47    0.0017372382211725
  48    -0.00096556740149612
  49    0.00037391834190044
  50    -1.1033942670993e-07
  51    -0.0024020186583408
  52    -0.00047678725529742
  53    -1.4646748697536e-06
  54    1.4298759874615e-06
  55     0.003605675674087
  56    -0.0011789526480515
  57    -0.0024266288605544
  58     -0.00507829134479
  59    0.0016604644228225
  60    0.0034177112752614
  61    1.3902742347226e-07
  62    -9.9502406665296e-08
  63    -1.2897162686405e-07
  64    -1.4423869709987e-07
  65    -8.6578217767871e-08
  66    1.4646766309118e-06
  67    -1.4298753430131e-06
  68    0.0036056792748826
  69    -0.0011789538239958
  70    -0.0024266312842516
  71    -0.0050782894031984
  72    0.0016604637865279
  73    0.0034177099683119
  74    -1.3902724061988e-07
  75    9.9502283757912e-08
  76    1.2897166052417e-07
  77    1.4423849734372e-07
  78    8.6578051983925e-08
 Sym= A
 Ene=               7
 Spin= Alpha
 Occup=    1.00000
   1    -2.5189062920587e-08
   2    1.0024442377976e-09
   3    4.556945804697e-09
   4       0.4087517336219
   5      0.40881657978434
   6      0.40878948401341
   7    -0.0033963835498387
   8    -0.0033969457849028
   9    -0.0033967113444588
  10    1.5766546138195e-13
  11    8.1265598506441e-09
  12    8.1263171714376e-09
  13    4.9874269759515e-14
  14    8.1262506936395e-09
  15    1.5001391863062e-13
  16    -3.4668095654272e-10
  17    -3.455774741895e-10
  18    6.1957507314861e-13
  19    -3.4590119746012e-10
  20    -0.0017948809679004
  21    0.0010990559455536
  22    0.0010991954533534
  23    -1.247336130332e-08
  24    -0.00042675198454363
  25    -0.0014188757094938
  26    0.0014190496333934
  27    2.5181490465161e-08
  28    -1.003916865909e-09
  29    -4.5522363753675e-09
  30      0.40869154103212
  31      0.40867653807968
  32      0.40868379788544
  33    -0.0033954032271523
  34    -0.0033952784144955
  35    -0.0033953394721583
  36    -1.3598400422309e-13
  37    -8.1248107360794e-09
  38    -8.1236187177581e-09
  39    -9.1316682749276e-13
  40    -8.1240661192543e-09
  41    -1.0456705029749e-13
  42    3.4703799931332e-10
  43    3.4538071078548e-10
  44    -7.4223899562509e-13
  45    3.4605988181614e-10
  46    -0.0017944583511259
  47    0.0010989094657576
  48    0.0010988538585934
  49    -3.2850146654309e-08
  50    -0.00042666723326244
  51    -0.0014187025057542
  52    0.0014185889533328
  53    7.3284634100288e-07
  54    -7.1094172624676e-07
  55    0.0017912475174028
  56    0.0017913306060583
  57    0.0017912986755717
  58    -0.0022473703430182
  59    -0.0022475331505386
  60    -0.002247469721802
  61    -9.8975335310917e-09
  62    4.0161229894983e-08
  63    6.6220096076568e-08
  64    1.2482989196059e-07
  65    5.1344772249664e-08
  66    -7.3284869162736e-07
  67    7.1093885935121e-07
  68    0.0017912487498002
  69    0.0017913318374827
  70    0.0017912999076362
  71    -0.002247370746046
  72    -0.0022475335523486
  73    -0.0022474701243741
  74    9.8975340383764e-09
  75    -4.0160717139354e-08
  76    -6.6219605832904e-08
  77    -1.2482991073155e-07
  78    -5.1344263320911e-08
 Sym= A
 Ene=               8
 Spin= Alpha
 Occup=    1.00000
   1     0.058490911814538
   2    -0.025399293757896
   3    -0.025756471643311
   4    2.1941900321542e-07
   5    2.1941670979546e-07
   6    2.1941813510534e-07
   7    -1.0482440499813e-07
   8    -1.0482139282633e-07
   9    -1.0482329754388e-07
  10    -1.1334364921722e-08
  11    0.0017800617931475
  12    0.0017801456373661
  13    8.5509370184882e-08
  14    0.0017800955536808
  15    4.0658196576974e-09
  16    0.0012874381837289
  17    0.0012874877177073
  18    -5.5280575295083e-08
  19    0.0012874575621576
  20    -2.6321281179934e-08
  21    1.6118679028884e-08
  22    1.6117996209824e-08
  23    -7.9997301357494e-14
  24    -5.0784185319908e-10
  25    -2.0809147420437e-08
  26    2.0808193955328e-08
  27     0.058490925548421
  28    -0.025399296715987
  29    -0.025756486707084
  30    -2.1940588228462e-07
  31    -2.1940375760553e-07
  32    -2.1940514945657e-07
  33    1.0488503278501e-07
  34    1.0488220623479e-07
  35    1.0488402036012e-07
  36    -1.8784462906759e-08
  37    0.0017800786022827
  38    0.0017801353050551
  39    1.8403269578861e-07
  40    0.0017801012079832
  41    -2.5437489334324e-09
  42     0.001287451270093
  43    0.0012874718525701
  44    3.0013688234824e-08
  45    0.0012874586708389
  46    2.6339850985108e-08
  47    -1.6130041859435e-08
  48    -1.612937088179e-08
  49    4.7700923675892e-14
  50    5.0808292467671e-10
  51    2.0823834329703e-08
  52    -2.0822879138563e-08
  53      0.61701157855349
  54    -0.043923900957917
  55    1.5616706841522e-08
  56    -4.3492327199948e-08
  57    -1.6477434943526e-08
  58    -8.8881499903571e-09
  59    1.5560981270975e-08
  60    5.1451151063561e-09
  61    2.2783630960596e-09
  62    -0.00052928273931251
  63    -0.00052927378931139
  64    -1.9987070227172e-08
  65    -0.00052927914565185
  66       0.6170196565551
  67    -0.043924328262035
  68    -1.5591176938745e-08
  69    4.351937097289e-08
  70    1.650418137786e-08
  71    9.1369584374255e-09
  72    -1.5313091273428e-08
  73    -4.8969226695524e-09
  74    2.2790077832308e-09
  75    -0.00052928860871147
  76    -0.00052927965765042
  77    -1.998338718671e-08
  78    -0.00052928501439723
 Sym= A
 Ene=               9
 Spin= Alpha
 Occup=    1.00000
   1    3.7467483012507e-07
   2    -1.5677459127053e-07
   3    -1.7702500942977e-07
   4    -0.036546455426715
   5    -0.036546448297268
   6    -0.036546451439868
   7     0.018324745353686
   8     0.018324700505662
   9       0.0183247195988
  10    1.1078969417477e-12
  11    1.9487852578893e-08
  12    1.9486400724551e-08
  13    6.6056564669658e-12
  14    1.9486977575084e-08
  15    2.3489861459717e-13
  16    1.3085269920176e-08
  17    1.3084237494549e-08
  18    7.9875406952795e-13
  19    1.3084562354007e-08
  20    0.0045393790335714
  21    -0.0027797970067098
  22    -0.0027797875489532
  23    1.1301001460737e-08
  24    0.00011066639569613
  25    0.0035887053751291
  26    -0.0035886841376006
  27    3.7474845434081e-07
  28    -1.5666445903735e-07
  29    -1.7720441141935e-07
  30     0.036546441177743
  31     0.036546460985025
  32     0.036546452061342
  33    -0.018324712170077
  34    -0.018324744074224
  35    -0.018324729813385
  36    1.0409083512506e-12
  37    1.9541295103374e-08
  38    1.9540008863532e-08
  39    7.4061232774012e-12
  40    1.9540433785314e-08
  41    1.7635534928506e-13
  42    1.3130682935554e-08
  43    1.3129388426931e-08
  44    1.5079268062473e-12
  45    1.3129857982956e-08
  46    -0.0045393811001803
  47    0.0027797897023706
  48    0.0027797951367954
  49    -8.0226802520835e-09
  50    -0.00011066580877059
  51    -0.0035886991735545
  52    0.0035886913260568
  53      0.66381712225712
  54    -0.041478902407314
  55    1.8621005549394e-08
  56    -4.2800118921885e-08
  57    -1.5144615748739e-08
  58    -2.2705087525652e-08
  59    3.1533249970059e-08
  60    8.2848766977511e-09
  61    2.1253948839891e-09
  62    -0.00074325494379023
  63    -0.00074325348601312
  64    -1.9244298882148e-08
  65    -0.00074325441449042
  66      -0.6638098227963
  67      0.04147825055049
  68    1.862598726226e-08
  69    -4.279502427385e-08
  70    -1.5140115616314e-08
  71    -2.2608507897565e-08
  72    3.1629856100873e-08
  73    8.3815242546041e-09
  74    -2.1261054690799e-09
  75    0.00074324168537957
  76    0.00074324022611281
  77    1.9239559901712e-08
  78    0.00074324115514988
 Sym= A
 Ene=              10
 Spin= Alpha
 Occup=    1.00000
   1    -0.070964587688407
   2     0.049418899915793
   3      0.02695219255816
   4    -2.7422242975971e-08
   5    -2.742296045277e-08
   6    -2.7422268613024e-08
   7    1.5601023239186e-08
   8    1.559920893611e-08
   9    1.560025168896e-08
  10    -2.471544418455e-07
  11     -0.18774110239179
  12     -0.18773900816706
  13    2.2684158487228e-06
  14     -0.18774018411833
  15    6.322607655615e-09
  16    -0.0019339696860075
  17    -0.0019340529023809
  18    -1.2976899778144e-08
  19    -0.0019340051931941
  20    8.947167532288e-09
  21    -5.4789957800252e-09
  22    -5.4789163656794e-09
  23    2.4979556671126e-13
  24    -8.6905487289517e-09
  25    7.0736185244027e-09
  26    -7.0731165686813e-09
  27     0.070964615237335
  28    -0.049418886501735
  29    -0.026952237280392
  30    -2.7418656872081e-08
  31    -2.7419328741839e-08
  32    -2.7418713840718e-08
  33    1.5624233498406e-08
  34    1.5622515365809e-08
  35    1.5623612955731e-08
  36    2.0269326101869e-07
  37      0.18774028930716
  38      0.18774086685528
  39    -2.3729889517832e-06