[Molden Format]
made by pyscf v[2.7.0]
[Atoms] (AU)
Ni   1   18     0.00000000000000     0.00000000000000     0.00000000000000
Ni   2   18     7.88015793943631     7.88015793943631     7.88015793943631
Ni   3   18     3.94007896971815     3.94007896971815     7.88015793943631
Ni   4   18    11.82023690915446    11.82023690915446    15.76031587887262
Ni   5   18     7.88015793943631     7.88015793943631    15.76031587887262
Ni   6   18    15.76031587887262    15.76031587887262    23.64047381830892
Ni   7   18    11.82023690915446    11.82023690915446    23.64047381830892
Ni   8   18    19.70039484859077    19.70039484859077    31.52063175774523
O   9   6     3.94007896971815     3.94007896971815     3.94007896971815
O   10   6    11.82023690915446    11.82023690915446    11.82023690915446
O   11   6     7.88015793943631     7.88015793943631    11.82023690915446
O   12   6    15.76031587887262    15.76031587887262    19.70039484859077
O   13   6    11.82023690915446    11.82023690915446    19.70039484859077
O   14   6    19.70039484859077    19.70039484859077    27.58055278802708
O   15   6    15.76031587887262    15.76031587887262    27.58055278802708
O   16   6    23.64047381830892    23.64047381830892    35.46071072746339
[GTO]
1 0
 s    5 1.00
       10.077427756816   -0.16816538591041
        5.847735848326   -0.31203986825241
        2.494032826008    0.76231213094128
        0.988354848429    0.55437604679043
        0.344978242158    0.03155701098717
 s    5 1.00
       10.077427756816   0.058000950062097
        5.847735848326    0.14653254811322
        2.494032826008   -0.50777581008225
        0.988354848429    -1.0938070247199
        0.344978242158    0.66529670756055
 s    5 1.00
       10.077427756816  0.0053460448296085
        5.847735848326   -0.08418457883001
        2.494032826008  0.0015718453997724
        0.988354848429   -0.87757432617674
        0.344978242158     1.5777647329419
 p    5 1.00
       10.077427756816   -0.12236774170237
        5.847735848326    0.23342048133724
        2.494032826008    0.52638460167342
        0.988354848429    0.39425731817561
        0.344978242158   0.051608556148131
 p    5 1.00
       10.077427756816  -0.012616972687739
        5.847735848326  -0.025194607896872
        2.494032826008   -0.22268415555677
        0.988354848429   -0.22497484726751
        0.344978242158     1.1712751328261
 d    5 1.00
       10.077427756816    0.08918252306285
        5.847735848326    0.25567343360121
        2.494032826008     0.3554995300545
        0.988354848429    0.34934981895974
        0.344978242158    0.26737625455372
 d    5 1.00
       10.077427756816  -0.093993451492197
        5.847735848326   -0.36074197756838
        2.494032826008    -0.5570889903816
        0.988354848429   -0.15334190860524
        0.344978242158    0.42481173879085
 f    5 1.00
       10.077427756816  -0.0083683152125103
        5.847735848326    0.03763133075813
        2.494032826008   0.027363949027932
        0.988354848429    0.87387054931809
        0.344978242158    0.16755768848104

2 0
 s    5 1.00
       10.077427756816   -0.16816538591041
        5.847735848326   -0.31203986825241
        2.494032826008    0.76231213094128
        0.988354848429    0.55437604679043
        0.344978242158    0.03155701098717
 s    5 1.00
       10.077427756816   0.058000950062097
        5.847735848326    0.14653254811322
        2.494032826008   -0.50777581008225
        0.988354848429    -1.0938070247199
        0.344978242158    0.66529670756055
 s    5 1.00
       10.077427756816  0.0053460448296085
        5.847735848326   -0.08418457883001
        2.494032826008  0.0015718453997724
        0.988354848429   -0.87757432617674
        0.344978242158     1.5777647329419
 p    5 1.00
       10.077427756816   -0.12236774170237
        5.847735848326    0.23342048133724
        2.494032826008    0.52638460167342
        0.988354848429    0.39425731817561
        0.344978242158   0.051608556148131
 p    5 1.00
       10.077427756816  -0.012616972687739
        5.847735848326  -0.025194607896872
        2.494032826008   -0.22268415555677
        0.988354848429   -0.22497484726751
        0.344978242158     1.1712751328261
 d    5 1.00
       10.077427756816    0.08918252306285
        5.847735848326    0.25567343360121
        2.494032826008     0.3554995300545
        0.988354848429    0.34934981895974
        0.344978242158    0.26737625455372
 d    5 1.00
       10.077427756816  -0.093993451492197
        5.847735848326   -0.36074197756838
        2.494032826008    -0.5570889903816
        0.988354848429   -0.15334190860524
        0.344978242158    0.42481173879085
 f    5 1.00
       10.077427756816  -0.0083683152125103
        5.847735848326    0.03763133075813
        2.494032826008   0.027363949027932
        0.988354848429    0.87387054931809
        0.344978242158    0.16755768848104

3 0
 s    5 1.00
       10.077427756816   -0.16816538591041
        5.847735848326   -0.31203986825241
        2.494032826008    0.76231213094128
        0.988354848429    0.55437604679043
        0.344978242158    0.03155701098717
 s    5 1.00
       10.077427756816   0.058000950062097
        5.847735848326    0.14653254811322
        2.494032826008   -0.50777581008225
        0.988354848429    -1.0938070247199
        0.344978242158    0.66529670756055
 s    5 1.00
       10.077427756816  0.0053460448296085
        5.847735848326   -0.08418457883001
        2.494032826008  0.0015718453997724
        0.988354848429   -0.87757432617674
        0.344978242158     1.5777647329419
 p    5 1.00
       10.077427756816   -0.12236774170237
        5.847735848326    0.23342048133724
        2.494032826008    0.52638460167342
        0.988354848429    0.39425731817561
        0.344978242158   0.051608556148131
 p    5 1.00
       10.077427756816  -0.012616972687739
        5.847735848326  -0.025194607896872
        2.494032826008   -0.22268415555677
        0.988354848429   -0.22497484726751
        0.344978242158     1.1712751328261
 d    5 1.00
       10.077427756816    0.08918252306285
        5.847735848326    0.25567343360121
        2.494032826008     0.3554995300545
        0.988354848429    0.34934981895974
        0.344978242158    0.26737625455372
 d    5 1.00
       10.077427756816  -0.093993451492197
        5.847735848326   -0.36074197756838
        2.494032826008    -0.5570889903816
        0.988354848429   -0.15334190860524
        0.344978242158    0.42481173879085
 f    5 1.00
       10.077427756816  -0.0083683152125103
        5.847735848326    0.03763133075813
        2.494032826008   0.027363949027932
        0.988354848429    0.87387054931809
        0.344978242158    0.16755768848104

4 0
 s    5 1.00
       10.077427756816   -0.16816538591041
        5.847735848326   -0.31203986825241
        2.494032826008    0.76231213094128
        0.988354848429    0.55437604679043
        0.344978242158    0.03155701098717
 s    5 1.00
       10.077427756816   0.058000950062097
        5.847735848326    0.14653254811322
        2.494032826008   -0.50777581008225
        0.988354848429    -1.0938070247199
        0.344978242158    0.66529670756055
 s    5 1.00
       10.077427756816  0.0053460448296085
        5.847735848326   -0.08418457883001
        2.494032826008  0.0015718453997724
        0.988354848429   -0.87757432617674
        0.344978242158     1.5777647329419
 p    5 1.00
       10.077427756816   -0.12236774170237
        5.847735848326    0.23342048133724
        2.494032826008    0.52638460167342
        0.988354848429    0.39425731817561
        0.344978242158   0.051608556148131
 p    5 1.00
       10.077427756816  -0.012616972687739
        5.847735848326  -0.025194607896872
        2.494032826008   -0.22268415555677
        0.988354848429   -0.22497484726751
        0.344978242158     1.1712751328261
 d    5 1.00
       10.077427756816    0.08918252306285
        5.847735848326    0.25567343360121
        2.494032826008     0.3554995300545
        0.988354848429    0.34934981895974
        0.344978242158    0.26737625455372
 d    5 1.00
       10.077427756816  -0.093993451492197
        5.847735848326   -0.36074197756838
        2.494032826008    -0.5570889903816
        0.988354848429   -0.15334190860524
        0.344978242158    0.42481173879085
 f    5 1.00
       10.077427756816  -0.0083683152125103
        5.847735848326    0.03763133075813
        2.494032826008   0.027363949027932
        0.988354848429    0.87387054931809
        0.344978242158    0.16755768848104

5 0
 s    5 1.00
       10.077427756816   -0.16816538591041
        5.847735848326   -0.31203986825241
        2.494032826008    0.76231213094128
        0.988354848429    0.55437604679043
        0.344978242158    0.03155701098717
 s    5 1.00
       10.077427756816   0.058000950062097
        5.847735848326    0.14653254811322
        2.494032826008   -0.50777581008225
        0.988354848429    -1.0938070247199
        0.344978242158    0.66529670756055
 s    5 1.00
       10.077427756816  0.0053460448296085
        5.847735848326   -0.08418457883001
        2.494032826008  0.0015718453997724
        0.988354848429   -0.87757432617674
        0.344978242158     1.5777647329419
 p    5 1.00
       10.077427756816   -0.12236774170237
        5.847735848326    0.23342048133724
        2.494032826008    0.52638460167342
        0.988354848429    0.39425731817561
        0.344978242158   0.051608556148131
 p    5 1.00
       10.077427756816  -0.012616972687739
        5.847735848326  -0.025194607896872
        2.494032826008   -0.22268415555677
        0.988354848429   -0.22497484726751
        0.344978242158     1.1712751328261
 d    5 1.00
       10.077427756816    0.08918252306285
        5.847735848326    0.25567343360121
        2.494032826008     0.3554995300545
        0.988354848429    0.34934981895974
        0.344978242158    0.26737625455372
 d    5 1.00
       10.077427756816  -0.093993451492197
        5.847735848326   -0.36074197756838
        2.494032826008    -0.5570889903816
        0.988354848429   -0.15334190860524
        0.344978242158    0.42481173879085
 f    5 1.00
       10.077427756816  -0.0083683152125103
        5.847735848326    0.03763133075813
        2.494032826008   0.027363949027932
        0.988354848429    0.87387054931809
        0.344978242158    0.16755768848104

6 0
 s    5 1.00
       10.077427756816   -0.16816538591041
        5.847735848326   -0.31203986825241
        2.494032826008    0.76231213094128
        0.988354848429    0.55437604679043
        0.344978242158    0.03155701098717
 s    5 1.00
       10.077427756816   0.058000950062097
        5.847735848326    0.14653254811322
        2.494032826008   -0.50777581008225
        0.988354848429    -1.0938070247199
        0.344978242158    0.66529670756055
 s    5 1.00
       10.077427756816  0.0053460448296085
        5.847735848326   -0.08418457883001
        2.494032826008  0.0015718453997724
        0.988354848429   -0.87757432617674
        0.344978242158     1.5777647329419
 p    5 1.00
       10.077427756816   -0.12236774170237
        5.847735848326    0.23342048133724
        2.494032826008    0.52638460167342
        0.988354848429    0.39425731817561
        0.344978242158   0.051608556148131
 p    5 1.00
       10.077427756816  -0.012616972687739
        5.847735848326  -0.025194607896872
        2.494032826008   -0.22268415555677
        0.988354848429   -0.22497484726751
        0.344978242158     1.1712751328261
 d    5 1.00
       10.077427756816    0.08918252306285
        5.847735848326    0.25567343360121
        2.494032826008     0.3554995300545
        0.988354848429    0.34934981895974
        0.344978242158    0.26737625455372
 d    5 1.00
       10.077427756816  -0.093993451492197
        5.847735848326   -0.36074197756838
        2.494032826008    -0.5570889903816
        0.988354848429   -0.15334190860524
        0.344978242158    0.42481173879085
 f    5 1.00
       10.077427756816  -0.0083683152125103
        5.847735848326    0.03763133075813
        2.494032826008   0.027363949027932
        0.988354848429    0.87387054931809
        0.344978242158    0.16755768848104

7 0
 s    5 1.00
       10.077427756816   -0.16816538591041
        5.847735848326   -0.31203986825241
        2.494032826008    0.76231213094128
        0.988354848429    0.55437604679043
        0.344978242158    0.03155701098717
 s    5 1.00
       10.077427756816   0.058000950062097
        5.847735848326    0.14653254811322
        2.494032826008   -0.50777581008225
        0.988354848429    -1.0938070247199
        0.344978242158    0.66529670756055
 s    5 1.00
       10.077427756816  0.0053460448296085
        5.847735848326   -0.08418457883001
        2.494032826008  0.0015718453997724
        0.988354848429   -0.87757432617674
        0.344978242158     1.5777647329419
 p    5 1.00
       10.077427756816   -0.12236774170237
        5.847735848326    0.23342048133724
        2.494032826008    0.52638460167342
        0.988354848429    0.39425731817561
        0.344978242158   0.051608556148131
 p    5 1.00
       10.077427756816  -0.012616972687739
        5.847735848326  -0.025194607896872
        2.494032826008   -0.22268415555677
        0.988354848429   -0.22497484726751
        0.344978242158     1.1712751328261
 d    5 1.00
       10.077427756816    0.08918252306285
        5.847735848326    0.25567343360121
        2.494032826008     0.3554995300545
        0.988354848429    0.34934981895974
        0.344978242158    0.26737625455372
 d    5 1.00
       10.077427756816  -0.093993451492197
        5.847735848326   -0.36074197756838
        2.494032826008    -0.5570889903816
        0.988354848429   -0.15334190860524
        0.344978242158    0.42481173879085
 f    5 1.00
       10.077427756816  -0.0083683152125103
        5.847735848326    0.03763133075813
        2.494032826008   0.027363949027932
        0.988354848429    0.87387054931809
        0.344978242158    0.16755768848104

8 0
 s    5 1.00
       10.077427756816   -0.16816538591041
        5.847735848326   -0.31203986825241
        2.494032826008    0.76231213094128
        0.988354848429    0.55437604679043
        0.344978242158    0.03155701098717
 s    5 1.00
       10.077427756816   0.058000950062097
        5.847735848326    0.14653254811322
        2.494032826008   -0.50777581008225
        0.988354848429    -1.0938070247199
        0.344978242158    0.66529670756055
 s    5 1.00
       10.077427756816  0.0053460448296085
        5.847735848326   -0.08418457883001
        2.494032826008  0.0015718453997724
        0.988354848429   -0.87757432617674
        0.344978242158     1.5777647329419
 p    5 1.00
       10.077427756816   -0.12236774170237
        5.847735848326    0.23342048133724
        2.494032826008    0.52638460167342
        0.988354848429    0.39425731817561
        0.344978242158   0.051608556148131
 p    5 1.00
       10.077427756816  -0.012616972687739
        5.847735848326  -0.025194607896872
        2.494032826008   -0.22268415555677
        0.988354848429   -0.22497484726751
        0.344978242158     1.1712751328261
 d    5 1.00
       10.077427756816    0.08918252306285
        5.847735848326    0.25567343360121
        2.494032826008     0.3554995300545
        0.988354848429    0.34934981895974
        0.344978242158    0.26737625455372
 d    5 1.00
       10.077427756816  -0.093993451492197
        5.847735848326   -0.36074197756838
        2.494032826008    -0.5570889903816
        0.988354848429   -0.15334190860524
        0.344978242158    0.42481173879085
 f    5 1.00
       10.077427756816  -0.0083683152125103
        5.847735848326    0.03763133075813
        2.494032826008   0.027363949027932
        0.988354848429    0.87387054931809
        0.344978242158    0.16755768848104

9 0
 s    5 1.00
       10.389228018317   0.096173629276308
        3.849621072005    0.10660531634684
        1.388401188741   -0.33089834130169
        0.496955043655    -0.6496800688702
         0.16249161504   -0.18463001807573
 s    5 1.00
       10.389228018317   0.073630541584408
        3.849621072005    0.12300997725073
        1.388401188741   -0.34343118342323
        0.496955043655   -0.10206354789477
         0.16249161504     1.1731714191581
 p    5 1.00
       10.389228018317  -0.057562550918086
        3.849621072005    -0.1784919811951
        1.388401188741   -0.35468525474322
        0.496955043655   -0.42655539522159
         0.16249161504    -0.2416879946641
 p    5 1.00
       10.389228018317  -0.021265755186923
        3.849621072005  -0.0049739296849897
        1.388401188741    -0.1779930881255
        0.496955043655    0.30108256988861
         0.16249161504    0.83447656856867
 d    5 1.00
       10.389228018317   0.018871300922529
        3.849621072005   0.038532527740515
        1.388401188741    0.46305094876991
        0.496955043655    0.56500599531169
         0.16249161504   0.096713771818926

10 0
 s    5 1.00
       10.389228018317   0.096173629276308
        3.849621072005    0.10660531634684
        1.388401188741   -0.33089834130169
        0.496955043655    -0.6496800688702
         0.16249161504   -0.18463001807573
 s    5 1.00
       10.389228018317   0.073630541584408
        3.849621072005    0.12300997725073
        1.388401188741   -0.34343118342323
        0.496955043655   -0.10206354789477
         0.16249161504     1.1731714191581
 p    5 1.00
       10.389228018317  -0.057562550918086
        3.849621072005    -0.1784919811951
        1.388401188741   -0.35468525474322
        0.496955043655   -0.42655539522159
         0.16249161504    -0.2416879946641
 p    5 1.00
       10.389228018317  -0.021265755186923
        3.849621072005  -0.0049739296849897
        1.388401188741    -0.1779930881255
        0.496955043655    0.30108256988861
         0.16249161504    0.83447656856867
 d    5 1.00
       10.389228018317   0.018871300922529
        3.849621072005   0.038532527740515
        1.388401188741    0.46305094876991
        0.496955043655    0.56500599531169
         0.16249161504   0.096713771818926

11 0
 s    5 1.00
       10.389228018317   0.096173629276308
        3.849621072005    0.10660531634684
        1.388401188741   -0.33089834130169
        0.496955043655    -0.6496800688702
         0.16249161504   -0.18463001807573
 s    5 1.00
       10.389228018317   0.073630541584408
        3.849621072005    0.12300997725073
        1.388401188741   -0.34343118342323
        0.496955043655   -0.10206354789477
         0.16249161504     1.1731714191581
 p    5 1.00
       10.389228018317  -0.057562550918086
        3.849621072005    -0.1784919811951
        1.388401188741   -0.35468525474322
        0.496955043655   -0.42655539522159
         0.16249161504    -0.2416879946641
 p    5 1.00
       10.389228018317  -0.021265755186923
        3.849621072005  -0.0049739296849897
        1.388401188741    -0.1779930881255
        0.496955043655    0.30108256988861
         0.16249161504    0.83447656856867
 d    5 1.00
       10.389228018317   0.018871300922529
        3.849621072005   0.038532527740515
        1.388401188741    0.46305094876991
        0.496955043655    0.56500599531169
         0.16249161504   0.096713771818926

12 0
 s    5 1.00
       10.389228018317   0.096173629276308
        3.849621072005    0.10660531634684
        1.388401188741   -0.33089834130169
        0.496955043655    -0.6496800688702
         0.16249161504   -0.18463001807573
 s    5 1.00
       10.389228018317   0.073630541584408
        3.849621072005    0.12300997725073
        1.388401188741   -0.34343118342323
        0.496955043655   -0.10206354789477
         0.16249161504     1.1731714191581
 p    5 1.00
       10.389228018317  -0.057562550918086
        3.849621072005    -0.1784919811951
        1.388401188741   -0.35468525474322
        0.496955043655   -0.42655539522159
         0.16249161504    -0.2416879946641
 p    5 1.00
       10.389228018317  -0.021265755186923
        3.849621072005  -0.0049739296849897
        1.388401188741    -0.1779930881255
        0.496955043655    0.30108256988861
         0.16249161504    0.83447656856867
 d    5 1.00
       10.389228018317   0.018871300922529
        3.849621072005   0.038532527740515
        1.388401188741    0.46305094876991
        0.496955043655    0.56500599531169
         0.16249161504   0.096713771818926

13 0
 s    5 1.00
       10.389228018317   0.096173629276308
        3.849621072005    0.10660531634684
        1.388401188741   -0.33089834130169
        0.496955043655    -0.6496800688702
         0.16249161504   -0.18463001807573
 s    5 1.00
       10.389228018317   0.073630541584408
        3.849621072005    0.12300997725073
        1.388401188741   -0.34343118342323
        0.496955043655   -0.10206354789477
         0.16249161504     1.1731714191581
 p    5 1.00
       10.389228018317  -0.057562550918086
        3.849621072005    -0.1784919811951
        1.388401188741   -0.35468525474322
        0.496955043655   -0.42655539522159
         0.16249161504    -0.2416879946641
 p    5 1.00
       10.389228018317  -0.021265755186923
        3.849621072005  -0.0049739296849897
        1.388401188741    -0.1779930881255
        0.496955043655    0.30108256988861
         0.16249161504    0.83447656856867
 d    5 1.00
       10.389228018317   0.018871300922529
        3.849621072005   0.038532527740515
        1.388401188741    0.46305094876991
        0.496955043655    0.56500599531169
         0.16249161504   0.096713771818926

14 0
 s    5 1.00
       10.389228018317   0.096173629276308
        3.849621072005    0.10660531634684
        1.388401188741   -0.33089834130169
        0.496955043655    -0.6496800688702
         0.16249161504   -0.18463001807573
 s    5 1.00
       10.389228018317   0.073630541584408
        3.849621072005    0.12300997725073
        1.388401188741   -0.34343118342323
        0.496955043655   -0.10206354789477
         0.16249161504     1.1731714191581
 p    5 1.00
       10.389228018317  -0.057562550918086
        3.849621072005    -0.1784919811951
        1.388401188741   -0.35468525474322
        0.496955043655   -0.42655539522159
         0.16249161504    -0.2416879946641
 p    5 1.00
       10.389228018317  -0.021265755186923
        3.849621072005  -0.0049739296849897
        1.388401188741    -0.1779930881255
        0.496955043655    0.30108256988861
         0.16249161504    0.83447656856867
 d    5 1.00
       10.389228018317   0.018871300922529
        3.849621072005   0.038532527740515
        1.388401188741    0.46305094876991
        0.496955043655    0.56500599531169
         0.16249161504   0.096713771818926

15 0
 s    5 1.00
       10.389228018317   0.096173629276308
        3.849621072005    0.10660531634684
        1.388401188741   -0.33089834130169
        0.496955043655    -0.6496800688702
         0.16249161504   -0.18463001807573
 s    5 1.00
       10.389228018317   0.073630541584408
        3.849621072005    0.12300997725073
        1.388401188741   -0.34343118342323
        0.496955043655   -0.10206354789477
         0.16249161504     1.1731714191581
 p    5 1.00
       10.389228018317  -0.057562550918086
        3.849621072005    -0.1784919811951
        1.388401188741   -0.35468525474322
        0.496955043655   -0.42655539522159
         0.16249161504    -0.2416879946641
 p    5 1.00
       10.389228018317  -0.021265755186923
        3.849621072005  -0.0049739296849897
        1.388401188741    -0.1779930881255
        0.496955043655    0.30108256988861
         0.16249161504    0.83447656856867
 d    5 1.00
       10.389228018317   0.018871300922529
        3.849621072005   0.038532527740515
        1.388401188741    0.46305094876991
        0.496955043655    0.56500599531169
         0.16249161504   0.096713771818926

16 0
 s    5 1.00
       10.389228018317   0.096173629276308
        3.849621072005    0.10660531634684
        1.388401188741   -0.33089834130169
        0.496955043655    -0.6496800688702
         0.16249161504   -0.18463001807573
 s    5 1.00
       10.389228018317   0.073630541584408
        3.849621072005    0.12300997725073
        1.388401188741   -0.34343118342323
        0.496955043655   -0.10206354789477
         0.16249161504     1.1731714191581
 p    5 1.00
       10.389228018317  -0.057562550918086
        3.849621072005    -0.1784919811951
        1.388401188741   -0.35468525474322
        0.496955043655   -0.42655539522159
         0.16249161504    -0.2416879946641
 p    5 1.00
       10.389228018317  -0.021265755186923
        3.849621072005  -0.0049739296849897
        1.388401188741    -0.1779930881255
        0.496955043655    0.30108256988861
         0.16249161504    0.83447656856867
 d    5 1.00
       10.389228018317   0.018871300922529
        3.849621072005   0.038532527740515
        1.388401188741    0.46305094876991
        0.496955043655    0.56500599531169
         0.16249161504   0.096713771818926

[5d]
[7f]
[9g]
[core]
1 : 10
2 : 10
3 : 10
4 : 10
5 : 10
6 : 10
7 : 10
8 : 10
9 : 2
10 : 2
11 : 2
12 : 2
13 : 2
14 : 2
15 : 2
16 : 2

[MO]
 Sym= A
 Ene=               0
 Spin= Alpha
 Occup=    1.00000
   1      0.31943851132818
   2    -0.033089168817134
   3    0.0096983145183675
   4    7.7534376398108e-09
   5    7.7534356032272e-09
   6    1.8711206999812e-08
   7    4.8736627854743e-08
   8    4.8736625275708e-08
   9    1.5435441597119e-07
  10    -0.0027897208035398
  11    3.7519879730345e-05
  12    3.7519879734594e-05
  13    -6.283743847504e-14
  14    -2.5180325066073e-06
  15     0.002961508753675
  16    -7.9646915300061e-06
  17    -7.9646915351047e-06
  18    8.6602269420876e-14
  19    7.4831234184839e-05
  20    -4.1928746144268e-09
  21    1.411537143515e-08
  22    1.4115371531042e-08
  23    -3.5343010714728e-16
  24    1.1465433924318e-09
  25    1.2584201080362e-08
  26    -1.258420033428e-08
  27      0.31947424662765
  28    -0.033092713186743
  29    0.0096991909912918
  30    1.908497780998e-09
  31    1.9084972001023e-09
  32    1.8381611575725e-09
  33    1.0152843131155e-08
  34    1.0152843580154e-08
  35    3.1937723739911e-08
  36    -0.0027901040221086
  37    3.7934479951979e-05
  38    3.7934479952634e-05
  39    -3.957024551805e-14
  40    -2.3150227077707e-06
  41    0.0029617770933283
  42    -7.5546750816016e-06
  43    -7.5546750839154e-06
  44    4.4074065128357e-14
  45    7.5024876468335e-05
  46    -8.3712389764693e-10
  47    2.8817070519593e-09
  48    2.8817075676751e-09
  49    -2.4707776352443e-16
  50    2.3568365572183e-10
  51    2.6125297508483e-09
  52    -2.6125293821315e-09
  53      0.31941294002094
  54     -0.03308649308057
  55    0.0096974671605625
  56    -7.5701067072648e-09
  57    -7.5701115089778e-09
  58    -1.8530398439354e-08
  59    -4.8731461607928e-08
  60    -4.8731464884886e-08
  61    -1.5433914671595e-07
  62    -0.0027895539641649
  63    3.7544202332858e-05
  64    3.7544202335034e-05
  65    -6.1374135769772e-14
  66    -2.5642142216464e-06
  67    0.0029612208048315
  68    -7.9154370694494e-06
  69    -7.915437072818e-06
  70    7.1367354525611e-14
  71    7.478303336044e-05
  72    4.1919425852927e-09
  73    -1.4116411691626e-08
  74    -1.4116411643509e-08
  75    -5.3210727749961e-17
  76    -1.1477271213676e-09
  77    -1.2584507491946e-08
  78    1.2584508028447e-08
  79      0.31959831544473
  80    -0.033105699009134
  81    0.0097033048745365
  82    -2.0928120646575e-09
  83    -2.0928091557497e-09
  84    -2.0197844036571e-09
  85    -1.0160954229881e-08
  86    -1.016095247611e-08
  87    -3.195241172225e-08
  88    -0.0027909118053048
  89    3.7756789504681e-05
  90    3.7756789512133e-05
  91    -1.0882168935798e-13
  92    -2.0910988331755e-06
  93     0.002963172535121
  94    -7.726184518887e-06
  95    -7.7261845268704e-06
  96    1.3837350282559e-13
  97    7.5257124749096e-05
  98    8.3785900167464e-10
  99    -2.8802354473924e-09
 100    -2.8802351224143e-09
 101    -9.2221450700253e-17
 102    -2.3441249789543e-10
 103    -2.6131227615475e-09
 104    2.6131226930807e-09
 105      0.31943851487554
 106    -0.033089169185748
 107    0.0096983146303368
 108    7.7533950835245e-09
 109    7.7533950814875e-09
 110    1.870975338513e-08
 111    4.8739278807757e-08
 112    4.8739277532667e-08
 113    1.5433777971513e-07
 114    -0.002789720831484
 115    3.7519879426164e-05
 116    3.7519879424566e-05
 117    -3.2960544883192e-14
 118    -2.5180282643197e-06
 119    0.0029615087892865
 120    -7.9646922838878e-06
 121    -7.9646922836942e-06
 122    2.6314008073525e-14
 123    7.4831238886418e-05
 124    -4.1919899897304e-09
 125    1.4115627914877e-08
 126    1.4115627797809e-08
 127    2.6914751594936e-16
 128    1.1464756187154e-09
 129    1.2583507176771e-08
 130    -1.2583507086274e-08
 131      0.31947425169141
 132    -0.033092713712032
 133    0.0096991911478432
 134    1.9085749176911e-09
 135    1.9085796025344e-09
 136    1.8374238345454e-09
 137    1.0154938063752e-08
 138    1.0154939707038e-08
 139    3.1929477875363e-08
 140    -0.0027901040654436
 141    3.7934474239326e-05
 142    3.7934474248125e-05
 143    -1.0141283671972e-13
 144    -2.3150225716821e-06
 145    0.0029617771412196
 146    -7.5546809496831e-06
 147    -7.5546809586427e-06
 148    1.3955819662044e-13
 149    7.5024877808069e-05
 150    -8.367807711463e-10
 151    2.8820682671346e-09
 152    2.8820682077786e-09
 153    4.6216645270469e-16
 154    2.3566149783197e-10
 155    2.6123307070017e-09
 156    -2.6123310141783e-09
 157      0.31941294604116
 158    -0.033086493705469
 159    0.0096974673481177
 160    -7.5702617010766e-09
 161    -7.5702548395931e-09
 162    -1.8529598974259e-08
 163    -4.8734117300576e-08
 164    -4.8734112612134e-08
 165    -1.5433084931992e-07
 166    -0.0027895540140951
 167    3.7544197757512e-05
 168    3.7544197753534e-05