[Molden Format]
made by pyscf v[2.7.0]
[Atoms] (AU)
Ni   1   18     0.00000000000000     0.00000000000000     0.00000000000000
Ni   2   18     7.88015793943631     7.88015793943631     7.88015793943631
Ni   3   18     3.94007896971815     3.94007896971815     7.88015793943631
Ni   4   18    11.82023690915446    11.82023690915446    15.76031587887262
O   5   6     3.94007896971815     3.94007896971815     3.94007896971815
O   6   6    11.82023690915446    11.82023690915446    11.82023690915446
O   7   6     7.88015793943631     7.88015793943631    11.82023690915446
O   8   6    15.76031587887262    15.76031587887262    19.70039484859077
[GTO]
1 0
 s    5 1.00
       10.077427756816   -0.16816538591041
        5.847735848326   -0.31203986825241
        2.494032826008    0.76231213094128
        0.988354848429    0.55437604679043
        0.344978242158    0.03155701098717
 s    5 1.00
       10.077427756816   0.058000950062097
        5.847735848326    0.14653254811322
        2.494032826008   -0.50777581008225
        0.988354848429    -1.0938070247199
        0.344978242158    0.66529670756055
 s    5 1.00
       10.077427756816  0.0053460448296085
        5.847735848326   -0.08418457883001
        2.494032826008  0.0015718453997724
        0.988354848429   -0.87757432617674
        0.344978242158     1.5777647329419
 p    5 1.00
       10.077427756816   -0.12236774170237
        5.847735848326    0.23342048133724
        2.494032826008    0.52638460167342
        0.988354848429    0.39425731817561
        0.344978242158   0.051608556148131
 p    5 1.00
       10.077427756816  -0.012616972687739
        5.847735848326  -0.025194607896872
        2.494032826008   -0.22268415555677
        0.988354848429   -0.22497484726751
        0.344978242158     1.1712751328261
 d    5 1.00
       10.077427756816    0.08918252306285
        5.847735848326    0.25567343360121
        2.494032826008     0.3554995300545
        0.988354848429    0.34934981895974
        0.344978242158    0.26737625455372
 d    5 1.00
       10.077427756816  -0.093993451492197
        5.847735848326   -0.36074197756838
        2.494032826008    -0.5570889903816
        0.988354848429   -0.15334190860524
        0.344978242158    0.42481173879085
 f    5 1.00
       10.077427756816  -0.0083683152125103
        5.847735848326    0.03763133075813
        2.494032826008   0.027363949027932
        0.988354848429    0.87387054931809
        0.344978242158    0.16755768848104

2 0
 s    5 1.00
       10.077427756816   -0.16816538591041
        5.847735848326   -0.31203986825241
        2.494032826008    0.76231213094128
        0.988354848429    0.55437604679043
        0.344978242158    0.03155701098717
 s    5 1.00
       10.077427756816   0.058000950062097
        5.847735848326    0.14653254811322
        2.494032826008   -0.50777581008225
        0.988354848429    -1.0938070247199
        0.344978242158    0.66529670756055
 s    5 1.00
       10.077427756816  0.0053460448296085
        5.847735848326   -0.08418457883001
        2.494032826008  0.0015718453997724
        0.988354848429   -0.87757432617674
        0.344978242158     1.5777647329419
 p    5 1.00
       10.077427756816   -0.12236774170237
        5.847735848326    0.23342048133724
        2.494032826008    0.52638460167342
        0.988354848429    0.39425731817561
        0.344978242158   0.051608556148131
 p    5 1.00
       10.077427756816  -0.012616972687739
        5.847735848326  -0.025194607896872
        2.494032826008   -0.22268415555677
        0.988354848429   -0.22497484726751
        0.344978242158     1.1712751328261
 d    5 1.00
       10.077427756816    0.08918252306285
        5.847735848326    0.25567343360121
        2.494032826008     0.3554995300545
        0.988354848429    0.34934981895974
        0.344978242158    0.26737625455372
 d    5 1.00
       10.077427756816  -0.093993451492197
        5.847735848326   -0.36074197756838
        2.494032826008    -0.5570889903816
        0.988354848429   -0.15334190860524
        0.344978242158    0.42481173879085
 f    5 1.00
       10.077427756816  -0.0083683152125103
        5.847735848326    0.03763133075813
        2.494032826008   0.027363949027932
        0.988354848429    0.87387054931809
        0.344978242158    0.16755768848104

3 0
 s    5 1.00
       10.077427756816   -0.16816538591041
        5.847735848326   -0.31203986825241
        2.494032826008    0.76231213094128
        0.988354848429    0.55437604679043
        0.344978242158    0.03155701098717
 s    5 1.00
       10.077427756816   0.058000950062097
        5.847735848326    0.14653254811322
        2.494032826008   -0.50777581008225
        0.988354848429    -1.0938070247199
        0.344978242158    0.66529670756055
 s    5 1.00
       10.077427756816  0.0053460448296085
        5.847735848326   -0.08418457883001
        2.494032826008  0.0015718453997724
        0.988354848429   -0.87757432617674
        0.344978242158     1.5777647329419
 p    5 1.00
       10.077427756816   -0.12236774170237
        5.847735848326    0.23342048133724
        2.494032826008    0.52638460167342
        0.988354848429    0.39425731817561
        0.344978242158   0.051608556148131
 p    5 1.00
       10.077427756816  -0.012616972687739
        5.847735848326  -0.025194607896872
        2.494032826008   -0.22268415555677
        0.988354848429   -0.22497484726751
        0.344978242158     1.1712751328261
 d    5 1.00
       10.077427756816    0.08918252306285
        5.847735848326    0.25567343360121
        2.494032826008     0.3554995300545
        0.988354848429    0.34934981895974
        0.344978242158    0.26737625455372
 d    5 1.00
       10.077427756816  -0.093993451492197
        5.847735848326   -0.36074197756838
        2.494032826008    -0.5570889903816
        0.988354848429   -0.15334190860524
        0.344978242158    0.42481173879085
 f    5 1.00
       10.077427756816  -0.0083683152125103
        5.847735848326    0.03763133075813
        2.494032826008   0.027363949027932
        0.988354848429    0.87387054931809
        0.344978242158    0.16755768848104

4 0
 s    5 1.00
       10.077427756816   -0.16816538591041
        5.847735848326   -0.31203986825241
        2.494032826008    0.76231213094128
        0.988354848429    0.55437604679043
        0.344978242158    0.03155701098717
 s    5 1.00
       10.077427756816   0.058000950062097
        5.847735848326    0.14653254811322
        2.494032826008   -0.50777581008225
        0.988354848429    -1.0938070247199
        0.344978242158    0.66529670756055
 s    5 1.00
       10.077427756816  0.0053460448296085
        5.847735848326   -0.08418457883001
        2.494032826008  0.0015718453997724
        0.988354848429   -0.87757432617674
        0.344978242158     1.5777647329419
 p    5 1.00
       10.077427756816   -0.12236774170237
        5.847735848326    0.23342048133724
        2.494032826008    0.52638460167342
        0.988354848429    0.39425731817561
        0.344978242158   0.051608556148131
 p    5 1.00
       10.077427756816  -0.012616972687739
        5.847735848326  -0.025194607896872
        2.494032826008   -0.22268415555677
        0.988354848429   -0.22497484726751
        0.344978242158     1.1712751328261
 d    5 1.00
       10.077427756816    0.08918252306285
        5.847735848326    0.25567343360121
        2.494032826008     0.3554995300545
        0.988354848429    0.34934981895974
        0.344978242158    0.26737625455372
 d    5 1.00
       10.077427756816  -0.093993451492197
        5.847735848326   -0.36074197756838
        2.494032826008    -0.5570889903816
        0.988354848429   -0.15334190860524
        0.344978242158    0.42481173879085
 f    5 1.00
       10.077427756816  -0.0083683152125103
        5.847735848326    0.03763133075813
        2.494032826008   0.027363949027932
        0.988354848429    0.87387054931809
        0.344978242158    0.16755768848104

5 0
 s    5 1.00
       10.389228018317   0.096173629276308
        3.849621072005    0.10660531634684
        1.388401188741   -0.33089834130169
        0.496955043655    -0.6496800688702
         0.16249161504   -0.18463001807573
 s    5 1.00
       10.389228018317   0.073630541584408
        3.849621072005    0.12300997725073
        1.388401188741   -0.34343118342323
        0.496955043655   -0.10206354789477
         0.16249161504     1.1731714191581
 p    5 1.00
       10.389228018317  -0.057562550918086
        3.849621072005    -0.1784919811951
        1.388401188741   -0.35468525474322
        0.496955043655   -0.42655539522159
         0.16249161504    -0.2416879946641
 p    5 1.00
       10.389228018317  -0.021265755186923
        3.849621072005  -0.0049739296849897
        1.388401188741    -0.1779930881255
        0.496955043655    0.30108256988861
         0.16249161504    0.83447656856867
 d    5 1.00
       10.389228018317   0.018871300922529
        3.849621072005   0.038532527740515
        1.388401188741    0.46305094876991
        0.496955043655    0.56500599531169
         0.16249161504   0.096713771818926

6 0
 s    5 1.00
       10.389228018317   0.096173629276308
        3.849621072005    0.10660531634684
        1.388401188741   -0.33089834130169
        0.496955043655    -0.6496800688702
         0.16249161504   -0.18463001807573
 s    5 1.00
       10.389228018317   0.073630541584408
        3.849621072005    0.12300997725073
        1.388401188741   -0.34343118342323
        0.496955043655   -0.10206354789477
         0.16249161504     1.1731714191581
 p    5 1.00
       10.389228018317  -0.057562550918086
        3.849621072005    -0.1784919811951
        1.388401188741   -0.35468525474322
        0.496955043655   -0.42655539522159
         0.16249161504    -0.2416879946641
 p    5 1.00
       10.389228018317  -0.021265755186923
        3.849621072005  -0.0049739296849897
        1.388401188741    -0.1779930881255
        0.496955043655    0.30108256988861
         0.16249161504    0.83447656856867
 d    5 1.00
       10.389228018317   0.018871300922529
        3.849621072005   0.038532527740515
        1.388401188741    0.46305094876991
        0.496955043655    0.56500599531169
         0.16249161504   0.096713771818926

7 0
 s    5 1.00
       10.389228018317   0.096173629276308
        3.849621072005    0.10660531634684
        1.388401188741   -0.33089834130169
        0.496955043655    -0.6496800688702
         0.16249161504   -0.18463001807573
 s    5 1.00
       10.389228018317   0.073630541584408
        3.849621072005    0.12300997725073
        1.388401188741   -0.34343118342323
        0.496955043655   -0.10206354789477
         0.16249161504     1.1731714191581
 p    5 1.00
       10.389228018317  -0.057562550918086
        3.849621072005    -0.1784919811951
        1.388401188741   -0.35468525474322
        0.496955043655   -0.42655539522159
         0.16249161504    -0.2416879946641
 p    5 1.00
       10.389228018317  -0.021265755186923
        3.849621072005  -0.0049739296849897
        1.388401188741    -0.1779930881255
        0.496955043655    0.30108256988861
         0.16249161504    0.83447656856867
 d    5 1.00
       10.389228018317   0.018871300922529
        3.849621072005   0.038532527740515
        1.388401188741    0.46305094876991
        0.496955043655    0.56500599531169
         0.16249161504   0.096713771818926

8 0
 s    5 1.00
       10.389228018317   0.096173629276308
        3.849621072005    0.10660531634684
        1.388401188741   -0.33089834130169
        0.496955043655    -0.6496800688702
         0.16249161504   -0.18463001807573
 s    5 1.00
       10.389228018317   0.073630541584408
        3.849621072005    0.12300997725073
        1.388401188741   -0.34343118342323
        0.496955043655   -0.10206354789477
         0.16249161504     1.1731714191581
 p    5 1.00
       10.389228018317  -0.057562550918086
        3.849621072005    -0.1784919811951
        1.388401188741   -0.35468525474322
        0.496955043655   -0.42655539522159
         0.16249161504    -0.2416879946641
 p    5 1.00
       10.389228018317  -0.021265755186923
        3.849621072005  -0.0049739296849897
        1.388401188741    -0.1779930881255
        0.496955043655    0.30108256988861
         0.16249161504    0.83447656856867
 d    5 1.00
       10.389228018317   0.018871300922529
        3.849621072005   0.038532527740515
        1.388401188741    0.46305094876991
        0.496955043655    0.56500599531169
         0.16249161504   0.096713771818926

[5d]
[7f]
[9g]
[core]
1 : 10
2 : 10
3 : 10
4 : 10
5 : 2
6 : 2
7 : 2
8 : 2

[MO]
 Sym= A
 Ene=               0
 Spin= Alpha
 Occup=    1.00000
   1      0.63878866242165
   2    -0.065995375005142
   3     0.019297755977529
   4    -3.3561167552804e-10
   5    -3.3561146517081e-10
   6    -3.8639890784644e-09
   7    -1.090722499585e-09
   8    -1.0907228977852e-09
   9    -2.2181504793741e-09
  10    -0.0049895108587735
  11    0.00082868107027243
  12    0.00082868107027812
  13    -4.0921916533246e-13
  14    0.00090441025596565
  15    0.0061465105144345
  16    0.00095611376818127
  17    0.00095611376818583
  18    5.4598001075796e-13
  19    0.0010380890858669
  20    -6.5029210109645e-12
  21    -4.0099728144276e-11
  22    -4.0099667253522e-11
  23    2.7028380714599e-18
  24    2.1334215034233e-11
  25    -2.3477087996684e-10
  26    2.347710571427e-10
  27      0.01312185941699
  28    -0.0015805556684589
  29    0.0003896842831993
  30    -6.5514137891832e-09
  31    -6.5514138113885e-09
  32    -1.3665612593329e-08
  33    -3.8515476756612e-08
  34    -3.8515477230871e-08
  35    -1.2633867818921e-07
  36    -0.00017586685981954
  37    -0.00090955890652815
  38    -0.0009095589065351
  39    -2.2481604121956e-14
  40    -0.0010073303806306
  41    -0.00035929845657973
  42    -0.00082491561907793
  43    -0.00082491561908294
  44    -2.4728857162082e-14
  45    -0.00085922551434625
  46    3.1968465043803e-09
  47    -1.1547039411132e-08
  48    -1.1547039394664e-08
  49    2.4268909929872e-17
  50    -9.3644704937424e-10
  51    -1.0005766431101e-08
  52    1.0005766542878e-08
  53       0.6388883696442
  54    -0.066005821810511
  55     0.019301056140079
  56    -3.0512371138542e-09
  57    -3.0512362977891e-09
  58    -3.6344849294592e-09
  59    8.370249557749e-11
  60    8.3702987582851e-11
  61    1.379525670654e-09
  62    -0.0049901093756281
  63    0.00082851418241045
  64    0.00082851418241551
  65    -3.9140019041761e-13
  66    0.00090458122638896
  67    0.0061476307731499
  68    0.00095599388790069
  69    0.00095599388790452
  70    5.2653324903884e-13
  71    0.0010382774088636
  72    -1.3392047304665e-10
  73    2.0883990189358e-10
  74    2.0884002483716e-10
  75    1.6089036727285e-17
  76    2.663909261724e-11
  77    2.9539719225875e-11
  78    -2.9539637087244e-11
  79     0.013120631536063
  80    -0.0015804266995416
  81    0.00038964364119448
  82    6.6828109451372e-09
  83    6.6828108916935e-09
  84    1.3744902679964e-08
  85    3.8604166933059e-08
  86    3.8604167118179e-08
  87    1.2645281786574e-07
  88    -0.00017587634405008
  89    -0.00090955672197288
  90    -0.00090955672197943
  91    -2.3192213796469e-14
  92    -0.0010073302059285
  93    -0.00035928894025341
  94    -0.00082491400807794
  95    -0.00082491400808259
  96    -2.540899968126e-14
  97    -0.00085923042297467
  98    -3.1764714697931e-09
  99    1.1538653096911e-08
 100    1.1538653157819e-08
 101    -2.4358739256913e-17
 102    9.3715526502901e-10
 103    1.0020621348334e-08
 104    -1.002062137344e-08
 105    0.00022544218756745
 106    0.0029812110676438
 107    5.4934092989173e-05
 108    5.493409296689e-05
 109    9.9174761355257e-05
 110    0.0019307928415379
 111    0.0019307928416241
 112    0.0010540991332423
 113    -0.00019672074201998
 114    6.0885689331336e-06
 115    6.0885689327567e-06
 116    -1.9789234643672e-14
 117    -3.4929505630087e-05
 118    0.00022544354392591
 119    0.0029815697028198
 120    -5.4950527939674e-05
 121    -5.4950527919639e-05
 122    -9.9160813321824e-05
 123    -0.0019311661924131
 124    -0.0019311661925014
 125    -0.0010539462805982
 126    -0.0001968394121798
 127    6.0878084996059e-06
 128    6.0878084992774e-06
 129    -1.915948372141e-14
 130    -3.4934699850999e-05
 131    0.00022544263498064
 132    0.0029815677501165
 133    5.4950638530826e-05
 134    5.4950638510842e-05
 135    9.9161103737987e-05
 136    0.0019311701252539
 137    0.0019311701253429
 138    0.0010539427523899
 139    -0.00019683773083606
 140    6.0878788670061e-06
 141    6.087878866628e-06
 142    -1.9121827614028e-14
 143    -3.4934828840474e-05
 144    0.00022544186807706
 145    0.0029812099961778
 146    -5.4934297100153e-05
 147    -5.4934297079222e-05
 148    -9.9175211414227e-05
 149    -0.0019307967603393
 150    -0.0019307967604289
 151    -0.0010540955576669
 152    -0.0001967190614585
 153    6.0885598774391e-06
 154    6.088559877097e-06
 155    -1.9676163322884e-14
 156    -3.4929699816879e-05
 Sym= A
 Ene=               1
 Spin= Alpha
 Occup=    1.00000
   1      0.63831909846902
   2    -0.066880688614431
   3     0.021132246185293
   4    -2.1449724918991e-10
   5    -2.144976211438e-10
   6    -3.6480365256624e-09
   7    -4.5910637537803e-10
   8    -4.5910633780262e-10
   9    -4.6935468615948e-10
  10    -0.0038322259207923
  11    -0.0010680186173109
  12    -0.0010680186173178
  13    -4.0321202582858e-13
  14    0.0010943809933403
  15    0.0071713746283271
  16    -0.00076717801764186
  17    -0.00076717801764787
  18    5.5322607005693e-13
  19    0.0012053874574163
  20    -8.9103085698574e-11
  21    6.944754286618e-11
  22    6.9447634971478e-11
  23    2.1077195932907e-18
  24    2.6304323707399e-11
  25    -9.2274178681519e-11
  26    9.2274325076738e-11
  27    1.0626110257512e-06
  28    -1.2727072544841e-07
  29    3.1447852866823e-08
  30    8.4722167702109e-05
  31    8.4722167709647e-05
  32    0.00017539618704238
  33    0.00049352524707998
  34    0.00049352524710998
  35    0.0016177225012853
  36    -1.3510088672988e-08
  37    -7.098510069615e-08
  38    -7.0985100557305e-08
  39    3.9221004372945e-16
  40    -7.8677921987782e-08
  41    -2.8419448623226e-08
  42    -6.4368165339897e-08
  43    -6.4368165213051e-08
  44    3.434330536908e-16
  45    -6.695445250674e-08
  46    -4.0785083736034e-05
  47    0.00014775478006389
  48    0.00014775478006568
  49    1.9461052684766e-15
  50    1.1990428135854e-05
  51    0.00012817041914317
  52    -0.00012817041914754
  53     -0.63821930446298
  54     0.066870378303015
  55    -0.021129230499836
  56    3.164259923366e-09
  57    3.1642591409092e-09
  58    3.8663153567334e-09
  59    5.0219895546265e-10
  60    5.0219879439755e-10
  61    4.1367422914295e-10
  62    0.0038314464453516
  63    0.0010681478951569
  64    0.0010681478951635
  65    3.8500110421112e-13
  66    -0.0010942398326143
  67    -0.0071704143839702
  68    0.00076732721228172
  69    0.00076732721228734
  70    -5.3390302626784e-13
  71    -0.0012052254175714
  72    3.4214174418045e-11
  73    -9.1475152428289e-11
  74    -9.1475122834816e-11
  75    -2.3323192441161e-17
  76    -2.2872028511641e-11
  77    1.1526293655725e-10
  78    -1.1526300183451e-10
  79    1.0641834206247e-06
  80    -1.2757649117767e-07
  81    3.1735961308369e-08
  82    -8.4722177294832e-05
  83    -8.4722177302452e-05
  84    -0.00017539622454645
  85    -0.00049352523900353
  86    -0.00049352523903395
  87    -0.0016177224887847
  88    -1.3444278200654e-08
  89    -7.0950917907564e-08
  90    -7.0950917543963e-08
  91    7.3166713838181e-17
  92    -7.867661555891e-08
  93    -2.8372167500936e-08
  94    -6.4337018117787e-08
  95    -6.4337017778444e-08
  96    6.1481317137355e-17
  97    -6.6946576448057e-08
  98    4.0785081534925e-05
  99    -0.00014775477851517
 100    -0.00014775477851684
 101    -1.9436397077239e-15
 102    -1.1990428750737e-05
 103    -0.00012817042359709
 104    0.00012817042360163
 105    6.6683259323327e-06
 106    0.0022926699018849
 107    0.00010481198855835
 108    0.00010481198853455
 109    -8.9728939614947e-05
 110    0.0023895398141515
 111    0.0023895398142292
 112    -0.00097780023554518
 113    -0.00075945984626737
 114    -4.6079206130009e-06
 115    -4.6079206123477e-06
 116    -1.9814824079544e-14
 117    -3.303876042854e-05
 118    -6.6332214972641e-06
 119    -0.002292204153526
 120    0.00010480346890061
 121    0.00010480346887886
 122    -8.9744523510457e-05
 123    0.0023892385089134
 124    0.0023892385089929
 125    -0.00097796482931351
 126    0.00075942914611978
 127    4.6088712674641e-06
 128    4.6088712668461e-06
 129    1.9082836337631e-14
 130    3.3033342617416e-05
 131    -6.6331047998249e-06
 132    -0.0022922039909504
 133    -0.00010480340805038
 134    -0.0001048034080288
 135    8.9744419810106e-05
 136    -0.0023892384744406
 137    -0.0023892384745211
 138    0.00097796456784086
 139    0.00075942914988464
 140    4.6088709168159e-06
 141    4.6088709161309e-06
 142    1.9126802868233e-14
 143    3.3033308852954e-05
 144    6.6683736181451e-06
 145    0.0022926700937483
 146    -0.00010481201822036
 147    -0.00010481201819793
 148    8.9729018360822e-05
 149    -0.0023895399291887
 150    -0.0023895399292695
 151    0.0009778005341988
 152    -0.00075945988224107
 153    -4.6079199867476e-06
 154    -4.6079199861267e-06
 155    -1.9727031405593e-14
 156    -3.3038788877427e-05
 Sym= A
 Ene=               2
 Spin= Alpha
 Occup=    1.00000
   1    -0.013253417027374
   2     0.001081417117533
   3    -0.00031709372495438
   4    -1.5333466510522e-07
   5    -1.5333466538599e-07
   6    -2.9151371431226e-07
   7    -7.9422018807676e-07
   8    -7.9422018864756e-07
   9    -2.2872399054105e-06
  10    0.00031724334235925
  11    -0.0009989008710917
  12    -0.00099890087108997
  13    1.554978636015e-14
  14    -0.00099381176363869
  15    7.1572634131411e-05
  16    -0.00090794405183234
  17    -0.00090794405183103
  18    -5.6372062295181e-15
  19    -0.00091529211721426
  20    1.2122135211899e-07
  21    -1.4377870054849e-07
  22    -1.4377870069138e-07
  23    -1.2105887867927e-17
  24    -5.0402976495954e-09
  25    -1.880197451362e-07
  26    1.880197451443e-07
  27      0.63971281793852
  28    -0.066007763169085
  29     0.019079050315189
  30    2.7876640660757e-09
  31    2.7876634364204e-09
  32    1.5014482694688e-09
  33    2.8392414863831e-10
  34    2.8392466476953e-10
  35    2.0872416910364e-10
  36    0.0042821528826427
  37    0.00092424295955005
  38    0.00092424295953625
  39    1.026824269957e-13
  40    -0.00025076618385943
  41    -0.005541925710138
  42    0.0010272055931241
  43    0.0010272055931336
  44    -1.3637422619813e-13
  45    0.0024196693634533
  46    8.6658145444542e-11
  47    -4.2278637899128e-11
  48    -4.2278749545358e-11
  49    -1.2057737682056e-17
  50    -3.0402262516932e-11
  51    5.4102737184913e-11
  52    -5.4102830798619e-11
  53    -0.013253340042515
  54    0.0010814090473965
  55    -0.00031709115938426
  56    1.5339277400163e-07
  57    1.533927741591e-07
  58    2.9165338466533e-07
  59    7.9421759879535e-07
  60    7.9421759975369e-07
  61    2.2871955973765e-06
  62    0.00031724287794315
  63    -0.00099890099988054
  64    -0.00099890099987908
  65    1.5275737882325e-14
  66    -0.00099381163281929
  67    7.1573497308312e-05
  68    -0.00090794414489197
  69    -0.00090794414489086
  70    -5.0921302196916e-15
  71    -0.00091529197355715
  72    -1.2124748400584e-07
  73    1.4378726137331e-07
  74    1.437872613569e-07
  75    1.879684826503e-17
  76    5.0362656229674e-09
  77    1.8800844588697e-07
  78    -1.8800844610406e-07
  79      0.63810802229327
  80    -0.065839122745264
  81     0.019025547118446
  82    2.5437064463775e-09
  83    2.543706496148e-09
  84    1.4649488002406e-09
  85    3.3218111437854e-10
  86    3.3218157569385e-10
  87    4.0259612818728e-10
  88    0.0042697637071296
  89    0.00092706889674626
  90    0.00092706889673295
  91    1.0018439145444e-13
  92    -0.00025049233799075
  93    -0.0055294865194837
  94    0.0010292738622919
  95    0.0010292738623019
  96    -1.4047864172926e-13
  97    0.0024132869088333
  98    8.5523448979458e-11
  99    -2.5559179685185e-11
 100    -2.5559187091706e-11
 101    7.9890120368107e-18
 102    -2.91767096339e-11
 103    6.4647027495962e-11
 104    -6.4647193120595e-11
 105    0.00012026426185021
 106    0.0028770854267661
 107    -3.1678430965961e-05
 108    -3.1678430971517e-05
 109    0.00010998653379629
 110    -0.0015492732510277
 111    -0.0015492732510076
 112    -0.0021649149944954
 113    0.00019409764630448
 114    7.7078637999409e-07
 115    7.7078638038695e-07
 116    5.6450012115394e-15
 117    6.7547665580734e-05
 118    0.00012026458924556
 119    0.0028770858231357
 120    3.1678515304011e-05
 121    3.1678515310471e-05
 122    -0.00010998641457043
 123    0.0015492728230571
 124    0.0015492728230396
 125    0.0021649148314318
 126    0.00019409750257407
 127    7.7074740327788e-07
 128    7.7074740363288e-07
 129    5.3650172544599e-15
 130    6.7547613126882e-05
 131    0.00011957145863793
 132    0.0028751485892691
 133    -3.1464325918565e-05
 134    -3.1464325923721e-05
 135    0.0001105078409298
 136    -0.0015442045861881
 137    -0.0015442045861642
 138    -0.0021694950959733
 139    0.00019628762733094
 140    8.1663277167502e-07
 141    8.1663277202084e-07
 142    6.1397589069278e-15
 143    6.7333914326095e-05
 144    0.00011957177520057
 145    0.0028751484285601
 146    3.1464430471832e-05
 147    3.1464430478098e-05
 148    -0.00011050774756747
 149    0.0015442047254135
 150    0.0015442047253928
 151    0.0021694946976038
 152    0.00019628766801139
 153    8.1659443314281e-07
 154    8.1659443348953e-07
 155    6.0623543923819e-15
 156    6.7333872349296e-05
 Sym= A
 Ene=               3
 Spin= Alpha
 Occup=    1.00000
   1    -1.6050469678995e-05
   2    1.2962849825831e-06
   3    -3.7996039604405e-07
   4    0.00012192098016017
   5    0.00012192098015668
   6    0.00023181898320622
   7    0.00063148966253385
   8    0.0006314896625259
   9    0.0018185219279598
  10    3.9410234345578e-07
  11    -1.2548273927752e-06
  12    -1.2548273921878e-06
  13    7.7482870093427e-18
  14    -1.2483526005806e-06
  15    9.5905649184972e-08
  16    -1.1403756646101e-06
  17    -1.1403756639669e-06
  18    1.2810115926435e-16
  19    -1.1495353880214e-06
  20    -9.6401806671149e-05
  21    0.00011432422220595
  22    0.00011432422220562
  23    -6.8784985637589e-16
  24    4.0039330917177e-06
  25    0.0001494995219399
  26    -0.00014949952193846
  27     -0.63736662836106
  28     0.066980459025248
  29    -0.021257932221942
  30    -2.789682501497e-09
  31    -2.7896815197776e-09
  32    -1.494888104865e-09
  33    -3.2541048407351e-10
  34    -3.254114682903e-10
  35    -3.1944330705831e-10
  36    -0.0049210034503155
  37    0.0011247018275074
  38    0.0011247018275178
  39    -9.9759914636077e-14
  40    0.00010887558173787
  41    0.0049399179554604
  42    0.00082350791185599
  43    0.00082350791184376
  44    1.3842791436974e-13
  45    -0.0025347762781881
  46    -8.2848815743965e-11
  47    3.4247195666303e-11
  48    3.4247162129863e-11
  49    5.0846821975947e-18
  50    3.1813393998154e-11
  51    -6.7111841216756e-11
  52    6.7111953648277e-11
  53    -1.6048548164391e-05
  54    1.2961324862539e-06
  55    -3.7999269140008e-07
  56    -0.0001219209798249
  57    -0.00012192097982176
  58    -0.00023181898152172
  59    -0.0006314896621168
  60    -0.00063148966210855
  61    -0.0018185219278175
  62    3.9405703436701e-07
  63    -1.2548022002718e-06
  64    -1.2548022002727e-06
  65      1.0273267971e-15
  66    -1.2483581952734e-06
  67    9.5901803325601e-08
  68    -1.1403547441031e-06
  69    -1.1403547440678e-06
  70    8.960760652853e-16
  71    -1.1495384220942e-06
  72    9.6401806781913e-05
  73    -0.00011432422216182
  74    -0.00011432422216155
  75    6.8254187685992e-16
  76    -4.0039329788994e-06
  77    -0.00014949952180425
  78    0.00014949952180275
  79      0.63897330147913
  80    -0.067146241456844
  81     0.021305859210005
  82    2.5490812011378e-09
  83    2.5490811345057e-09
  84    1.4440952024014e-09
  85    3.1735233024608e-10
  86    3.1735320441384e-10
  87    3.1759208081053e-10
  88    0.0049317555283088
  89    -0.0011223766843307
  90    -0.0011223766843419
  91    9.7807591367778e-14
  92    -0.00010950835471153
  93    -0.0049538391693548
  94    -0.00082092441665599
  95    -0.00082092441664424
  96    -1.431739830845e-13
  97    0.0025408507483789
  98    8.6449514979861e-11
  99    -3.5610949153185e-11
 100    -3.5610766554203e-11
 101    1.9059477879915e-17
 102    -3.2189999479512e-11
 103    6.2836945231484e-11
 104    -6.283709844902e-11
 105    -0.00027521567751906
 106    -0.00076616187628221
 107    8.497062732297e-05
 108    8.4970627332136e-05
 109    0.00020754878985411
 110    0.0020128479232876
 111    0.0020128479232684
 112    -0.0018234842368451
 113    0.00087091829414448
 114    1.8228309235089e-05
 115    1.8228309235267e-05
 116    -5.2662734204243e-15
 117    -8.4933897662799e-05
 118    -0.00027521575263359
 119    -0.00076616202057768
 120    -8.4970756167877e-05
 121    -8.4970756177815e-05
 122    -0.00020754855964164
 123    -0.0020128479918519
 124    -0.0020128479918356
 125    0.0018234843410866
 126    0.00087091818223249
 127    1.8228295598717e-05
 128    1.8228295598929e-05
 129    -5.0933419817141e-15
 130    -8.4933847177309e-05
 131    0.0002755168646406
 132    0.00077339722051516
 133    -8.5049647415307e-05
 134    -8.5049647423931e-05
 135    -0.00020727111596657
 136    -0.0020167323194294
 137    -0.0020167323194058
 138    0.0018180379442114
 139    -0.0008704278256212