[Molden Format]
made by pyscf v[2.8.0]
[Atoms] (AU)
Ni   1   18     1.97003948485908     1.97003948485908     1.97003948485908
Ni   2   18     9.85019742429539     9.85019742429539     9.85019742429539
O   3   6     5.91011845457723     5.91011845457723     5.91011845457723
O   4   6    13.79027639401354    13.79027639401354    13.79027639401354
[GTO]
1 0
 s    5 1.00
       10.077427756816   -0.16816538591041
        5.847735848326   -0.31203986825241
        2.494032826008    0.76231213094128
        0.988354848429    0.55437604679043
        0.344978242158    0.03155701098717
 s    5 1.00
       10.077427756816   0.058000950062097
        5.847735848326    0.14653254811322
        2.494032826008   -0.50777581008225
        0.988354848429    -1.0938070247199
        0.344978242158    0.66529670756055
 p    5 1.00
       10.077427756816   -0.12236774170237
        5.847735848326    0.23342048133724
        2.494032826008    0.52638460167342
        0.988354848429    0.39425731817561
        0.344978242158   0.051608556148131
 d    5 1.00
       10.077427756816    0.08918252306285
        5.847735848326    0.25567343360121
        2.494032826008     0.3554995300545
        0.988354848429    0.34934981895974
        0.344978242158    0.26737625455372

2 0
 s    5 1.00
       10.077427756816   -0.16816538591041
        5.847735848326   -0.31203986825241
        2.494032826008    0.76231213094128
        0.988354848429    0.55437604679043
        0.344978242158    0.03155701098717
 s    5 1.00
       10.077427756816   0.058000950062097
        5.847735848326    0.14653254811322
        2.494032826008   -0.50777581008225
        0.988354848429    -1.0938070247199
        0.344978242158    0.66529670756055
 p    5 1.00
       10.077427756816   -0.12236774170237
        5.847735848326    0.23342048133724
        2.494032826008    0.52638460167342
        0.988354848429    0.39425731817561
        0.344978242158   0.051608556148131
 d    5 1.00
       10.077427756816    0.08918252306285
        5.847735848326    0.25567343360121
        2.494032826008     0.3554995300545
        0.988354848429    0.34934981895974
        0.344978242158    0.26737625455372

3 0
 s    5 1.00
       10.389228018317   0.096173629276308
        3.849621072005    0.10660531634684
        1.388401188741   -0.33089834130169
        0.496955043655    -0.6496800688702
         0.16249161504   -0.18463001807573
 p    5 1.00
       10.389228018317  -0.057562550918086
        3.849621072005    -0.1784919811951
        1.388401188741   -0.35468525474322
        0.496955043655   -0.42655539522159
         0.16249161504    -0.2416879946641

4 0
 s    5 1.00
       10.389228018317   0.096173629276308
        3.849621072005    0.10660531634684
        1.388401188741   -0.33089834130169
        0.496955043655    -0.6496800688702
         0.16249161504   -0.18463001807573
 p    5 1.00
       10.389228018317  -0.057562550918086
        3.849621072005    -0.1784919811951
        1.388401188741   -0.35468525474322
        0.496955043655   -0.42655539522159
         0.16249161504    -0.2416879946641

[5d]
[7f]
[9g]
[core]
1 : 10
2 : 10
3 : 2
4 : 2

[MO]
 Sym= A
 Ene=               0
 Spin= Alpha
 Occup=    1.00000
   1    -1.2148736232091e-09
   2    1.0897910626083e-08
   3    3.044147229365e-12
   4    4.9989022494652e-11
   5    -5.3736311878565e-11
   6    -0.079909110498964
   7     -0.47474399073253
   8    -0.031070389408435
   9    -0.040467640622169
  10      0.50581453459819
  11    1.172201731498e-09
  12    -1.0974011131301e-08
  13    -3.0823591568955e-12
  14    -5.0573771842516e-11
  15    5.4359989804931e-11
  16    -0.079908011486714
  17     -0.47474327061862
  18    -0.031070415049255
  19    -0.040467108558028
  20      0.50581354123053
  21    -3.9307643156934e-11
  22    -8.2564207324125e-08
  23    -5.3132431418801e-07
  24    4.9454232530045e-07
  25    -3.8713054493421e-11
  26    8.2564908544001e-08
  27    5.3133508272689e-07
  28    -4.9455380868961e-07
 Sym= A
 Ene=               1
 Spin= Alpha
 Occup=    1.00000
   1    6.6513091821208e-09
   2    -5.960182453298e-08
   3    -6.1960274684043e-11
   4    3.6056237734529e-11
   5    3.0021488273307e-11
   6     0.040467055085103
   7     -0.30997026221114
   8      0.56612424224664
   9    -0.079907905865318
  10     -0.25615482848489
  11    -6.4083926434408e-09
  12    6.0059587462364e-08
  13    6.2658917310265e-11
  14    -3.6442093142424e-11
  15    -3.0340813252078e-11
  16     0.040467695159448
  17     -0.30997051029097
  18      0.56612620480036
  19    -0.079909218157785
  20     -0.25615490770545
  21    2.3824036496808e-10
  22    -4.4556274042984e-07
  23    5.8967464745458e-07
  24    5.0883183863647e-07
  25    2.348432115523e-10
  26    4.4554989369585e-07
  27    -5.8966755338384e-07
  28    -5.088259701779e-07
 Sym= A
 Ene=               2
 Spin= Alpha
 Occup=    1.00000
   1    -0.0012518901944024
   2    -0.002700156694548
   3    6.8891290664492e-11
   4    6.7580981364297e-11
   5    6.7394714042828e-11
   6    -8.3795173584143e-07
   7      0.40415166506018
   8      0.40414880461751
   9    1.1034017170842e-06
  10      0.40415211686052
  11    -0.001251891105684
  12    -0.0027001456765576
  13    -6.9661648612466e-11
  14    -6.8355599924977e-11
  15    -6.8170066499208e-11
  16    8.3537205639088e-07
  17      0.40415011610731
  18      0.40415301872323
  19    -1.0997723813156e-06
  20      0.40414965877427
  21    -0.0030630144136683
  22    -8.4723842977015e-07
  23    3.5953593924889e-07
  24    5.4990598901656e-07
  25    -0.0030630145405278
  26    8.472534343442e-07
  27    -3.5952087402929e-07
  28    -5.4989091522453e-07
 Sym= A
 Ene=               3
 Spin= Alpha
 Occup=    1.00000
   1    -1.0014043066345e-10
   2    -2.2863298651915e-09
   3    -1.6952310697172e-11
   4    -2.5652703374532e-10
   5    2.7464714879233e-10
   6       0.2667987291175
   7      0.41646698159635
   8      0.02814158856717
   9      0.13453697559209
  10     -0.44460761454409
  11    -1.577573748609e-10
  12    -1.887891229211e-09
  13    -1.6943769950455e-11
  14    -2.5639499506833e-10
  15    2.7450583073164e-10
  16      -0.2667977860639
  17     -0.41646778631699
  18    -0.028141074748662
  19     -0.13453651492741
  20      0.44460981854714
  21    -2.9282080268836e-09
  22      0.01005618037821
  23       0.1488227659967
  24     -0.15887894425977
  25    -2.9282050387169e-09
  26    -0.010056179926364
  27     -0.14882275925968
  28      0.15887893706205
 Sym= A
 Ene=               4
 Spin= Alpha
 Occup=    1.00000
   1    5.2053981088975e-10
   2    1.2528228203686e-08
   3    3.3177348200356e-10
   4    -1.856591860292e-10
   5    -1.5287702541574e-10
   6     -0.13453652147878
   7      0.27294126214729
   8     -0.49714535373027
   9      0.26679779906791
  10       0.2241989144533
  11    8.7684276578673e-10
  12    1.0089168775287e-08
  13    3.3161638016243e-10
  14    -1.8557182112733e-10
  15    -1.5280497797045e-10
  16       0.1345369670837
  17     -0.27294347708301
  18      0.49713967956287
  19      -0.2667987122546
  20      -0.2242013911966
  21    1.5866034614885e-08
  22      -0.1776516722718
  23     0.097534736807214
  24      0.08011692245316
  25    1.5866030740837e-08
  26      0.17765166330538
  27    -0.097534731857424
  28    -0.080116918385284
 Sym= A
 Ene=               5
 Spin= Alpha
 Occup=    1.00000
   1     0.004845451556743
   2    -0.059464501816276
   3    -1.6903161252922e-09
   4    -1.6900371898511e-09
   5    -1.6899977247123e-09
   6    -3.1726324865631e-08
   7     -0.35950812685853
   8     -0.35950878959176
   9    4.1936577485515e-08
  10     -0.35950802242478
  11    -0.0048454513584838
  12     0.059464502305639
  13    -1.6905984926053e-09
  14    -1.6903191198406e-09
  15    -1.6902796113654e-09
  16    -2.7478392371505e-08
  17      0.35950841929247
  18      0.35950776659281
  19    3.6015682937354e-08
  20      0.35950852237045
  21    2.3084029860796e-10
  22      0.22291472567608
  23      0.22291473148333
  24      0.22291473217673
  25    2.5137524950403e-10
  26     -0.22291466495325
  27     -0.22291467074671
  28     -0.22291467143815
 Sym= A
 Ene=               6
 Spin= Alpha
 Occup=    1.00000
   1    -1.4171177736799e-09
   2    -3.0466457447067e-10
   3    3.2329157223299e-12
   4    5.3932730718422e-11
   5    -5.7771371919349e-11
   6     -0.62658458495698
   7     0.060559417665258
   8    0.0038406082842817
   9     -0.31861061925268
  10     -0.06440003414498
  11    1.3118046835426e-09
  12    3.2420359031886e-10
  13    -3.1156017249742e-12
  14    -5.2091399744349e-11
  15    5.5813706650263e-11
  16     -0.62657999825779
  17     0.060558204361565
  18    0.0038405053186718
  19     -0.31860840085447
  20     -0.06439870387496
  21    3.9941458394642e-11
  22    2.1409349130481e-07
  23    2.4103817153451e-06
  24    -2.6198946707204e-06
  25    4.0975610988604e-11
  26    -2.1409560780647e-07
  27    -2.4104149196668e-06
  28    2.6199299738867e-06
 Sym= A
 Ene=               7
 Spin= Alpha
 Occup=    1.00000
   1    7.8969545781926e-09
   2    1.7070850891679e-09
   3    -6.283332638211e-11
   4    3.6177730324392e-11
   5    3.0276111625876e-11
   6      0.31860836127717
   7     0.039397925856594
   8    -0.072143860957618
   9     -0.62657992042048
  10     0.032745981485335
  11    -7.1729947483062e-09
  12    -1.7656456461998e-09
  13    6.0708790543206e-11
  14    -3.5015871744205e-11
  15    -2.9310431410004e-11
  16      0.31861065869421
  17     0.039398759365322
  18    -0.072145413489732
  19     -0.62658466253329
  20     0.032746623196951
  21    -2.1305385879133e-10
  22    2.9811551158181e-06
  23    -1.6912504109448e-06
  24    -1.3151995279035e-06
  25    -2.1854457573894e-10
  26    -2.9811167922816e-06
  27    1.6912294513655e-06
  28    1.3151821086557e-06
 Sym= A
 Ene=               8
 Spin= Alpha
 Occup=    1.00000
   1    1.3249336828954e-09
   2    1.2948968302337e-10
   3    -4.839105589109e-11
   4    -7.6948769144264e-10
   5    8.1802983028424e-10
   6        0.498278187208
   7    -0.067018742770666
   8    -0.0042462013330455
   9      0.25339908382917
  10     0.071264941929131
  11    1.2240574237565e-09
  12    1.3895663329839e-10
  13    -4.8406549725376e-11
  14    -7.6973236139566e-10
  15    8.1828970994846e-10
  16     -0.49828498116494
  17     0.067019512697561
  18    0.0042462677708447
  19     -0.25340236956029
  20    -0.071265783414448
  21    3.7408706616067e-10
  22    -0.025160639121255
  23     -0.39711514334881
  24      0.42227578252675
  25    3.7408751148716e-10
  26     0.025160640803485
  27      0.39711517003694
  28      -0.4222758108898
 Sym= A
 Ene=               9
 Spin= Alpha
 Occup=    1.00000
   1    -7.369882356742e-09
   2    -7.2229875221777e-10
   3    9.9173895249805e-10
   4    -5.4227887069286e-10
   5    -4.5035082356867e-10
   6     -0.25340242803385
   7    -0.043596909243545
   8     0.079839075199117
   9      0.49828509613963
  10    -0.036242154333513
  11    -6.7103798083002e-09
  12    -7.6058067320505e-10
  13    9.9202833324365e-10
  14    -5.4243697251991e-10
  15    -4.5048238919365e-10
  16      0.25339903374028
  17     0.043596379406271
  18    -0.079838107810486
  19     -0.49827808872548
  20     0.036241745068109
  21    -2.0663596775488e-09
  22      0.47307556104016
  23     -0.25832753289085
  24     -0.21474802853189
  25    -2.066361557906e-09
  26     -0.47307559546454
  27      0.25832755167576
  28      0.21474804412811
