[Molden Format]
made by pyscf v[2.8.0]
[Atoms] (AU)
Ni   1   18     1.97003948485908     1.97003948485908     1.97003948485908
Ni   2   18     9.85019742429539     9.85019742429539     9.85019742429539
O   3   6     5.91011845457723     5.91011845457723     5.91011845457723
O   4   6    13.79027639401354    13.79027639401354    13.79027639401354
[GTO]
1 0
 s    5 1.00
       10.077427756816   -0.16816538591041
        5.847735848326   -0.31203986825241
        2.494032826008    0.76231213094128
        0.988354848429    0.55437604679043
        0.344978242158    0.03155701098717
 s    5 1.00
       10.077427756816   0.058000950062097
        5.847735848326    0.14653254811322
        2.494032826008   -0.50777581008225
        0.988354848429    -1.0938070247199
        0.344978242158    0.66529670756055
 p    5 1.00
       10.077427756816   -0.12236774170237
        5.847735848326    0.23342048133724
        2.494032826008    0.52638460167342
        0.988354848429    0.39425731817561
        0.344978242158   0.051608556148131
 d    5 1.00
       10.077427756816    0.08918252306285
        5.847735848326    0.25567343360121
        2.494032826008     0.3554995300545
        0.988354848429    0.34934981895974
        0.344978242158    0.26737625455372

2 0
 s    5 1.00
       10.077427756816   -0.16816538591041
        5.847735848326   -0.31203986825241
        2.494032826008    0.76231213094128
        0.988354848429    0.55437604679043
        0.344978242158    0.03155701098717
 s    5 1.00
       10.077427756816   0.058000950062097
        5.847735848326    0.14653254811322
        2.494032826008   -0.50777581008225
        0.988354848429    -1.0938070247199
        0.344978242158    0.66529670756055
 p    5 1.00
       10.077427756816   -0.12236774170237
        5.847735848326    0.23342048133724
        2.494032826008    0.52638460167342
        0.988354848429    0.39425731817561
        0.344978242158   0.051608556148131
 d    5 1.00
       10.077427756816    0.08918252306285
        5.847735848326    0.25567343360121
        2.494032826008     0.3554995300545
        0.988354848429    0.34934981895974
        0.344978242158    0.26737625455372

3 0
 s    5 1.00
       10.389228018317   0.096173629276308
        3.849621072005    0.10660531634684
        1.388401188741   -0.33089834130169
        0.496955043655    -0.6496800688702
         0.16249161504   -0.18463001807573
 p    5 1.00
       10.389228018317  -0.057562550918086
        3.849621072005    -0.1784919811951
        1.388401188741   -0.35468525474322
        0.496955043655   -0.42655539522159
         0.16249161504    -0.2416879946641

4 0
 s    5 1.00
       10.389228018317   0.096173629276308
        3.849621072005    0.10660531634684
        1.388401188741   -0.33089834130169
        0.496955043655    -0.6496800688702
         0.16249161504   -0.18463001807573
 p    5 1.00
       10.389228018317  -0.057562550918086
        3.849621072005    -0.1784919811951
        1.388401188741   -0.35468525474322
        0.496955043655   -0.42655539522159
         0.16249161504    -0.2416879946641

[5d]
[7f]
[9g]
[core]
1 : 10
2 : 10
3 : 2
4 : 2

[MO]
 Sym= A
 Ene=               0
 Spin= Alpha
 Occup=    1.00000
   1      0.68517578514447
   2    -0.022976449538638
   3    -1.159920736374e-10
   4    -1.2196270437412e-10
   5    -1.2281139546603e-10
   6    -5.4165265414328e-09
   7    -0.0007421461207718
   8    -0.0007421473660611
   9    7.1452823769057e-09
  10    -0.00074214591950316
  11     -0.68516052870316
  12     0.022975986467195
  13    -1.1595524309463e-10
  14    -1.2192614737412e-10
  15    -1.2277461083517e-10
  16    -4.9509743928629e-09
  17    0.00074212819504054
  18    0.00074212668234685
  19    6.5050436904698e-09
  20    0.00074212842884906
  21    -7.27973488437e-08
  22    -0.0038372678791945
  23    -0.0038372679536336
  24    -0.0038372679631687
  25    -7.2797460169254e-08
  26    0.0038372678692951
  27    0.0038372679434077
  28    0.0038372679528965
 Sym= A
 Ene=               1
 Spin= Alpha
 Occup=    1.00000
   1      0.68756900153257
   2    -0.020867783997912
   3    -1.160715232519e-10
   4    -1.2207163513299e-10
   5    -1.2292445726781e-10
   6    -5.595603243207e-09
   7    -0.00084263126177265
   8    -0.00084263260814801
   9    7.3806876656356e-09
  10    -0.00084263104452202
  11      0.68758420459828
  12    -0.020868293775603
  13    1.1594735563911e-10
  14    1.2194809268449e-10
  15    1.2280079869566e-10
  16    5.1338414789273e-09
  17    -0.00084264855919969
  18    -0.00084264693697306
  19    -6.7461882009978e-09
  20    -0.00084264881025145
  21    -0.0065616624230523
  22    4.3611256636012e-08
  23    4.2167460457321e-08
  24    4.1939699519938e-08
  25    -0.0065616624021498
  26    -4.361059300165e-08
  27    -4.2166796807119e-08
  28    -4.1939035893678e-08
 Sym= A
 Ene=               2
 Spin= Alpha
 Occup=    1.00000
   1    -4.3070192774322e-12
   2    1.1098941140103e-12
   3      0.57676675330743
   4     -0.31433672833466
   5     -0.26242577445371
   6    3.936221844394e-11
   7    -3.0458008343607e-11
   8    5.4027184413482e-11
   9    -7.7168723287734e-11
  10    -2.5505923160447e-11
  11    -4.3079399170992e-12
  12    1.110611720256e-12
  13     -0.57675992545708
  14      0.31433709224147
  15      0.26242665479594
  16    3.9382891315206e-11
  17    -3.0431486229236e-11
  18    5.3979272453112e-11
  19    -7.7209516021934e-11
  20    -2.54834563681e-11
  21    1.1311398485163e-09
  22    2.4873627683001e-08
  23    -3.4716923942207e-09
  24    -1.199475971081e-09
  25    -1.1334397145799e-09
  26    2.487317976812e-08
  27    -3.4714483538418e-09
  28    -1.1992721414118e-09
 Sym= A
 Ene=               3
 Spin= Alpha
 Occup=    1.00000
   1    -7.2296017019853e-13
   2    1.8654812853424e-13
   3     0.029970778765973
   4      0.48450518094132
   5     -0.51447519966157
   6    7.7145088787233e-11
   7    4.2940952485882e-11
   8    2.5357998682622e-12
   9    3.9350448164575e-11
  10    -4.5801930307551e-11
  11    -7.2355811623632e-13
  12    1.8605490532854e-13
  13    -0.029970552438604
  14     -0.48450747185769
  15      0.51447871541299
  16    7.7186983594178e-11
  17     4.29008764257e-11
  18    2.5335540585783e-12
  19    3.9371637704012e-11
  20    -4.5759283599381e-11
  21    1.8182531025124e-10
  22    5.6252588991266e-11
  23    -1.1296698901837e-08
  24    1.4872345081393e-08
  25    -1.8221162469748e-10
  26    5.622936830924e-11
  27    -1.1297075020499e-08
  28    1.487274416873e-08
 Sym= A
 Ene=               4
 Spin= Alpha
 Occup=    1.00000
   1    -4.2497599730818e-12
   2    1.0966573944298e-12
   3      0.57667967275909
   4     -0.31395815443302
   5     -0.26263954398033
   6    4.056617519747e-11
   7    -3.0843085774078e-11
   8    5.4782773174627e-11
   9    -7.9408278290183e-11
  10    -2.5874907454408e-11
  11    4.2709917971005e-12
  12    -1.1048957178115e-12
  13      0.57662931844561
  14     -0.31401497596054
  15     -0.26269584555002
  16    -4.057228651275e-11
  17    3.082347871702e-11
  18    -5.4773111536411e-11
  19    7.9420381302835e-11
  20    2.5857081807485e-11
  21    4.4111367171454e-07
  22    0.0044638428645021
  23    -0.0024305487674889
  24    -0.0020332928949921
  25    -4.4111366735185e-07
  26    0.0044638428369219
  27    -0.0024305487518524
  28    -0.0020332928817492
 Sym= A
 Ene=               5
 Spin= Alpha
 Occup=    1.00000
   1    7.1064476773246e-13
   2    -1.8366444262616e-13
   3     -0.02963398756893
   4     -0.48458917526698
   5       0.5142084797117
   6    -7.9849422714988e-11
   7    -4.3567453879375e-11
   8    -2.5413661361057e-12
   9    -4.0785007839073e-11
  10    4.6432713976565e-11
  11    -7.1405401264334e-13
  12    1.8530539046433e-13
  13    -0.029623963948724
  14      -0.4845766374219
  15      0.51421520950783
  16    7.9860205803017e-11
  17    4.3552180621693e-11
  18    2.5420791673711e-12
  19    4.0790419749939e-11
  20    -4.6413134242471e-11
  21    -7.9037073117051e-08
  22    -0.00022935584432738
  23    -0.0037511231317116
  24    0.0039804787841225
  25    7.9037072604904e-08
  26    -0.00022935584239483
  27    -0.0037511230999844
  28    0.0039804787502461
 Sym= A
 Ene=               6
 Spin= Alpha
 Occup=    1.00000
   1    -1.5596280112206e-10
   2    6.1903232606881e-11
   3     -0.40767006880649
   4     -0.40772428392045
   5     -0.40773283299819
   6    1.5746687594561e-12
   7    6.9951973774895e-11
   8    7.2464685697478e-11
   9    -2.1235735567075e-12
  10    6.9595201202257e-11
  11    -1.5508298221612e-10
  12    6.2506277948815e-11
  13      0.40774760909167
  14      0.40769368039773
  15      0.40768516951689
  16    1.5674349903852e-12
  17    6.979299472952e-11
  18    7.2295191282607e-11
  19    -2.1140288024484e-12
  20    6.9437368780137e-11
  21    -0.0065966637101606
  22    3.0037220875992e-07
  23    -1.1809921481735e-07
  24    -1.8411414149722e-07
  25    0.0065966636460569
  26    3.0037318891352e-07
  27    -1.1809823177177e-07
  28    -1.8411315794015e-07
 Sym= A
 Ene=               7
 Spin= Alpha
 Occup=    1.00000
   1    1.555337753503e-10
   2    -6.1084699779957e-11
   3      0.40835114270638
   4      0.40835396665193
   5      0.40835440799772
   6    -1.5669538165452e-12
   7    -7.0442310280111e-11
   8    -7.293973128095e-11
   9    2.113307511957e-12
  10    -7.0087063461166e-11
  11    -1.5546318591194e-10
  12    6.0976052178067e-11
  13      0.40835522043636
  14        0.408352711243
  15      0.40835231127927
  16    1.5666773540323e-12
  17    7.0411800571275e-11
  18    7.2908853525289e-11
  19    -2.1128932886161e-12
  20    7.0056884820614e-11
  21    -1.9657837386355e-09
  22    0.0020773190668885
  23    0.0020773204689596
  24    0.0020773206522031
  25    1.9659135214769e-09
  26    0.0020773190441551
  27     0.002077320445226
  28    0.0020773206283279
 Sym= A
 Ene=               8
 Spin= Alpha
 Occup=    1.00000
   1    -0.0085410260377221
   2    -0.075863187186219
   3    -1.5475204782365e-09
   4    -1.54919519467e-09
   5    -1.5494336196747e-09
   6    1.4594756498558e-09
   7    0.0014972717448829
   8     0.001497271796948
   9    -1.9195696821173e-09
  10    0.0014972717335176
  11    -0.0085410260115759
  12    -0.075863187124321
  13    1.5487162336106e-09
  14    1.550391469105e-09
  15    1.5506294317309e-09
  16    -1.2325804222955e-09
  17    0.0014972718554667
  18    0.0014972714477277
  19    1.6249212402356e-09
  20    0.0014972719166368
  21      0.66330694699824
  22    4.8188495882949e-09
  23    -1.8066871317722e-09
  24    -2.8518882907801e-09
  25      0.66330687666678
  26    -4.8429235652443e-09
  27    1.782610979469e-09
  28    2.8278169857457e-09
 Sym= A
 Ene=               9
 Spin= Alpha
 Occup=    1.00000
   1    -7.9328655152488e-10
   2    -4.1486596304682e-09
   3     0.030705775081273
   4     0.030705774427422
   5     0.030705774323475
   6    1.7400906518662e-12
   7    1.0929510559647e-10
   8    1.1079333675293e-10
   9    -2.3444955497164e-12
  10    1.0908230758893e-10
  11    -7.8484481045098e-10
  12    -4.1463288249984e-09
  13    -0.030705774107531
  14    -0.030705774817717
  15    -0.030705774928954
  16    1.7389205326491e-12
  17    1.0900056505426e-10
  18    1.1049904605906e-10
  19    -2.3463077551993e-12
  20    1.0878776462189e-10
  21     -0.70929116621784
  22    -4.8058871252054e-09
  23    1.8187562661124e-09
  24    2.8638004344378e-09
  25      0.70929123183438
  26    -4.7834998459756e-09
  27    1.8411436929712e-09
  28    2.8861910388127e-09
 Sym= A
 Ene=              10
 Spin= Alpha
 Occup=    1.00000
   1    0.0023491267946357
   2    -0.092142266412539
   3    -2.0116432169188e-10
   4    -2.0227887860554e-10
   5    -2.0243726845311e-10
   6    -8.7266387974511e-09
   7      0.19620183527118
   8      0.19620173730622
   9    1.165748293155e-08
  10      0.19620185062844
  11    -0.0023491268712007
  12     0.092142266354022
  13    -2.0197173027231e-10
  14    -2.0308625410639e-10
  15    -2.0324446898812e-10
  16    -3.5442877110118e-09
  17     -0.19620178106641
  18      -0.1962018714741
  19    4.498643703933e-09
  20      -0.1962017667077
  21    -1.477880080471e-10
  22      0.28948423174705
  23        0.289484234437
  24      0.28948423478935
  25    -1.1121317634489e-10
  26     -0.28948422322537
  27     -0.28948422592788
  28     -0.28948422628201
 Sym= A
 Ene=              11
 Spin= Alpha
 Occup=    1.00000
   1    -4.7386554432733e-10
   2    3.4270408828549e-10
   3    1.7762403740691e-11
   4    2.8337518036226e-10
   5    -3.0130731770698e-10
   6     -0.30669525163256
   7      0.24196548576129
   8     0.015323747935987
   9     -0.15597846938493
  10     -0.25728929044062
  11    -4.3719263550657e-10
  12    1.0491482212612e-10
  13    1.7748257848462e-11
  14    2.8315974129157e-10
  15    -3.0107834080366e-10
  16      0.30669469096901
  17     -0.24196474155834
  18      -0.0153237173764
  19       0.1559781980294
  20      0.25728840141549
  21    1.0680250829611e-09
  22    -0.019222863952973
  23     -0.30353325403264
  24      0.32275611707417
  25    1.0680277145643e-09
  26     0.019222863370871
  27       0.3035332447607
  28     -0.32275610722152
 Sym= A
 Ene=              12
 Spin= Alpha
 Occup=    1.00000
   1    2.6575392282679e-09
   2    -1.9922867550661e-09
   3    -3.6815354512004e-10
   4    2.0165513951576e-10
   5    1.675034101315e-10
   6      0.15597819212838
   7      0.15739278814124
   8     -0.28824383908119
   9     -0.30669467938098
  10      0.13085136368334
  11    2.3756352374042e-09
  12    -4.8066916358281e-10
  13    -3.6789682067664e-10
  14    2.0151499507514e-10
  15    1.6738656653642e-10
  16     -0.15597846334738
  17     -0.15739309947763
  18      0.28824497566141
  19      0.30669523977761
  20     -0.13085155766404
  21    -5.9003721178305e-09
  22      0.36158835055371
  23     -0.19744166102603
  24     -0.16414668344171
  25    -5.9003717638464e-09
  26     -0.36158833820289
  27      0.19744165428158
  28      0.16414667784362
 Sym= A
 Ene=              13
 Spin= Alpha
 Occup=    1.00000
   1    -7.4769671334834e-10
   2    4.9631987310223e-09
   3    3.159496501126e-12
   4    4.9920912547638e-11
   5    -5.3792667424902e-11
   6    -0.079984428195887
   7     -0.47416334571146
   8    -0.032128701785757
   9    -0.040318087883567
  10      0.50629210507051
  11    6.8236056465137e-10
  12    -5.0880618709753e-09
  13    -3.1993787774001e-12
  14    -5.0505572660642e-11
  15    5.4416882541915e-11
  16    -0.079983703874991
  17     -0.47416327585865
  18    -0.032128721562829
  19    -0.040317733950618
  20      0.50629197149508
  21    -6.6918377534377e-11
  22    -4.5054664807162e-08
  23    -3.4718788199342e-07
  24    3.3940179339177e-07
  25    -6.6333140256491e-11
  26    4.5055396408191e-08
  27    3.4719864653115e-07
  28    -3.3941328428646e-07
 Sym= A
 Ene=              14
 Spin= Alpha
 Occup=    1.00000
   1    4.0601544463327e-09
   2    -2.6832721322624e-08
   3    -6.1953715182709e-11
   4    3.6150909904314e-11
   5    2.9922200541781e-11
   6     0.040317739861368
   7     -0.31085744339334
   8      0.56606600049989
   9    -0.079983715562225
  10     -0.25520887954288
  11    -3.6818422700432e-09
  12    2.758252062553e-08
  13    6.2653481166378e-11
  14    -3.6535610905156e-11
  15    -3.0238226269501e-11
  16     0.040318083229832
  17     -0.31085735058095
  18      0.56606625437117
  19    -0.079984418924687
  20     -0.25520877417808
  21    4.0388043572296e-10
  22    -2.9168837097183e-07
  23    3.1218264471246e-07
  24    2.6557359259056e-07
  25    4.004930211859e-10
  26    2.916755003641e-07
  27    -3.1217556872514e-07
  28    -2.655677820404e-07
 Sym= A
 Ene=              15
 Spin= Alpha
 Occup=    1.00000
   1    -0.0012518906798128
   2    -0.0027001507374608
   3    6.889044327439e-11
   4    6.7581520677531e-11
   5    6.7395450152189e-11
   6    -3.209006496961e-07
   7      0.40415112890641
   8      0.40415030500674
   9    4.229820258948e-07
  10      0.40415126068112
  11    -0.0012518906202674
  12    -0.0027001516336888
  13    -6.9662407019095e-11
  14    -6.8355031973967e-11
  15    -6.8169304193871e-11
  16    3.1026399258768e-07
  17      0.40415062603509
  18      0.40415158259712
  19    -4.0803789600519e-07
  20      0.40415047693691
  21    -0.0030630144137019
  22    -3.5427940713802e-07
  23    1.3606802982926e-07
  24    2.134205818756e-07
  25    -0.0030630145405622
  26    3.5429443106059e-07
  27    -1.3605298090425e-07
  28    -2.1340552962727e-07
 Sym= A
 Ene=              16
 Spin= Alpha
 Occup=    1.00000
   1    5.7509776912405e-10
   2    -1.0746157121569e-09
   3    -1.6925699811856e-11
   4    -2.5654224524919e-10
   5    2.7463487200349e-10
   6      0.26678765757891
   7      0.41648920483984
   8     0.028101323792559
   9      0.13455838229592
  10     -0.44459021465981
  11    4.8346807029951e-10
  12    -2.5859993814594e-10
  13    -1.6916922068563e-11
  14    -2.5640996917836e-10
  15    2.7449377589425e-10
  16     -0.26678734889886
  17     -0.41648955134583
  18    -0.028101157960567
  19     -0.13455823163078
  20      0.44459103271731
  21    -1.3165619034708e-09
  22     0.010041850560652
  23      0.14883055564551
  24     -0.15887240174291
  25    -1.3165634108438e-09
  26    -0.010041850109528
  27     -0.14883054890808
  28       0.1588723945455
 Sym= A
 Ene=              17
 Spin= Alpha
 Occup=    1.00000
   1    3.1536928229398e-09
   2    -6.1388468026666e-09
   3    -3.3177535508414e-10
   4    1.8563823633266e-10
   5    1.5289892715473e-10
   6      0.13455822801369
   7     -0.27290839084462
   8      0.49714566089679
   9     -0.26678734180394
  10     -0.22423557196938
  11    2.5845811278523e-09
  12    -1.0882453149385e-09
  13    -3.3161773187069e-10
  14    1.8555149223123e-10
  15    1.5282742768233e-10
  16     -0.13455837941192
  17      0.27290918027255
  18     -0.49714386284986
  19      0.26678765193893
  20      0.22423643961368
  21    -7.1368025404096e-09
  22      0.17765240142307
  23    -0.097522683560032
  24    -0.080129690166762
  25    -7.1368020840279e-09
  26     -0.17765239245661
  27     0.097522678610783
  28     0.080129686098305
 Sym= A
 Ene=              18
 Spin= Alpha
 Occup=    1.00000
   1    -0.0048454514313318
   2     0.059464502086801
   3    1.6903161236401e-09
   4    1.6900371457097e-09
   5    1.6899976427316e-09
   6    1.4554998103183e-08
   7      0.35950820480962
   8       0.3595084450697
   9    -1.9498115066855e-08
  10       0.3595081675334
  11    0.0048454514839044
  12    -0.059464502035161
  13    1.6905984509164e-09
  14    1.6903191257911e-09
  15    1.6902796244391e-09
  16    5.2262366204884e-09
  17     -0.35950833201077
  18     -0.35950813380455
  19    -6.549024732972e-09
  20     -0.35950836390336
  21    7.6010295086321e-11
  22     -0.22291471979254
  23     -0.22291473390369
  24     -0.22291473564018
  25    5.5475192993755e-11
  26      0.22291465906971
  27      0.22291467316707
  28      0.22291467490159
 Sym= A
 Ene=              19
 Spin= Alpha
 Occup=    1.00000
   1    2.1201653181824e-10
   2    5.621067681435e-09
   3    -0.023389684508802
   4    -0.023389685414698
   5    -0.023389685557971
   6    -2.6830839148182e-12
   7    2.3031624554432e-08
   8    2.3048513560202e-08
   9    3.6106099346611e-12
  10    2.302921956355e-08
  11    -2.0694964406749e-10
  12    -5.6180494421187e-09
  13    -0.023389684810368
  14    -0.023389685310383
  15    -0.023389685389626
  16    2.6878106490854e-12
  17    -2.3045433851363e-08
  18    -2.3062307781562e-08
  19    -3.6397324966373e-12
  20    -2.3043040489767e-08
  21    -2.9393207924272e-11
  22      0.43751623273991
  23       0.4375162453698
  24      0.43751624737752
  25    6.7429677495058e-11
  26      0.43751626915797
  27      0.43751628181649
  28      0.43751628382828
 Sym= A
 Ene=              20
 Spin= Alpha
 Occup=    1.00000
   1    1.7859223642413e-12
   2    2.1659996119537e-12
   3    -0.034459008996363
   4     0.018817507030396
   5     0.015641501767025
   6    -9.6027098005764e-09
   7    -8.2141963148111e-10
   8    1.4915636125552e-09
   9    1.8899623992556e-08
  10    -6.8288110606293e-10
  11    -1.7877981327911e-12
  12    -2.1675798094501e-12
  13    -0.034459005407253
  14     0.018817504415853
  15     0.015641499653948
  16    9.5836902602041e-09
  17    8.1252737115111e-10
  18    -1.4752753614351e-09
  19    -1.886222617738e-08
  20    6.7548855463563e-10
  21    -5.4203933477018e-09
  22      0.61785812054388
  23     -0.33740230982855
  24      -0.2804557915694
  25    5.4203935611249e-09
  26      0.61785810400797
  27     -0.33740230079489
  28      -0.2804557840666
 Sym= A
 Ene=              21
 Spin= Alpha
 Occup=    1.00000
   1    -3.0236232521342e-13
   2    -3.6627514406913e-13
   3    0.0018336672166781
   4     0.028925540068363
   5    -0.030759207241789
   6    1.7307419552146e-08
   7    -1.1737720625656e-09
   8    -7.3320606857391e-11
   9    8.8092517254992e-09
  10    1.2492510341418e-09
  11    3.0340610184465e-13
  12    3.6762879635909e-13
  13     0.001833667575599
  14     0.028925543439745
  15    -0.030759210765941
  16    -1.7269133563594e-08
  17    1.1600163047834e-09
  18    7.2448670232088e-11
  19    -8.7897756907423e-09
  20    -1.2346239200618e-09
  21    9.8142431109122e-10
  22    -0.032878088777671
  23     -0.51864177972902
  24      0.55151986502283
  25    -9.8142721866801e-10
  26     -0.03287808795378
  27     -0.51864176666598
  28      0.55151985113581
 Sym= A
 Ene=              22
 Spin= Alpha
 Occup=    1.00000
   1     1.43515014546e-09
   2    3.6242429088881e-11
   3    -3.2300539333907e-12
   4    -5.3928198485058e-11
   5    5.7770587185934e-11
   6      0.62658069937618
   7    -0.060559203761512
   8    -0.0038400532702428
   9      0.31861428056693
  10     0.064399263596951
  11    -1.336277765077e-09
  12    -6.9644476146162e-11
  13    3.1132127904815e-12
  14    5.2092001162239e-11
  15    -5.5818465654773e-11
  16      0.62657936389794
  17    -0.060558962064814
  18    -0.0038400334215109
  19      0.31861363402869
  20     0.064398997536362
  21    -4.7862393480308e-11
  22    -8.1780169342056e-08
  23    -9.2542995082383e-07
  24      1.0055703755e-06
  25    -4.8781492848815e-11
  26    8.1782277634408e-08
  27    9.2546306608284e-07
  28    -1.0056055805526e-06
 Sym= A
 Ene=              23
 Spin= Alpha
 Occup=    1.00000
   1    -7.9938083168424e-09
   2    -2.1783784604413e-10
   3    6.2835734852449e-11
   4    -3.6180539278794e-11
   5    -3.0279146260993e-11
   6     -0.31861363571262
   7    -0.039397837499654
   8     0.072144500246225
   9       0.6265793672157
  10    -0.032746703144148
  11    7.3115312426489e-09
  12    3.663996552798e-10
  13    -6.0704083594828e-11
  14    3.5014796526174e-11
  15    2.9310527849119e-11
  16     -0.31861427872392
  17    -0.039397993167204
  18     0.072144799703838
  19      0.62658069575002
  20    -0.032746822011848
  21    2.6412739014275e-10
  22    -1.1064894316446e-06
  23    6.2787270478367e-07
  24    4.8766940378916e-07
  25    2.6955529550578e-10
  26    1.1064509836832e-06
  27    -6.2785167881815e-07
  28    -4.8765193176728e-07
 Sym= A
 Ene=              24
 Spin= Alpha
 Occup=    0.00000
   1    -1.3208639128669e-09
   2    -1.6368849329947e-10
   3    4.8495419685757e-11
   4    7.6943076824174e-10
   5    -8.1807723645669e-10
   6     -0.49830703170302
   7     0.067014490527613
   8    0.0042546260017176
   9     -0.25334772929828
  10    -0.071269116746683
  11    -1.2260871535316e-09
  12    -9.7318544486012e-11
  13    4.8510867025353e-11
  14    7.6967506459647e-10
  15    -8.1833686296748e-10
  16      0.49830933752935
  17    -0.067014751662431
  18    -0.0042546483957158
  19      0.25334884578675
  20     0.071269401988331
  21    -3.6999623926125e-10
  22     0.025210401523198
  23      0.39708799751752
  24     -0.42229839867099
  25    -3.699964478021e-10
  26     -0.02521040320905
  27     -0.39708802420368
  28      0.42229842703568
 Sym= A
 Ene=              25
 Spin= Alpha
 Occup=    0.00000
   1    -7.3402178062635e-09
   2    -9.4399843079062e-10
   3    9.9173353880279e-10
   4    -5.4235966699596e-10
   5    -4.5026473639628e-10
   6     -0.25334884826989
   7    -0.043603831223891
   8     0.079838392012934
   9      0.49830934241845
  10    -0.036234562982665
  11    -6.7203317825771e-09
  12    -4.9692323289807e-10
  13    9.9202339641801e-10
  14    -5.4251804231359e-10
  15    -4.5039638475026e-10
  16      0.25334773761794
  17     0.043603657568729
  18    -0.079838074886337
  19     -0.49830704806027
  20     0.036234428968771
  21    -2.0425392357353e-09
  22      0.47307294514869
  23     -0.25836931888921
  24     -0.21470362391289
  25    -2.0425409864047e-09
  26      -0.4730729795729
  27      0.25836933767692
  28      0.21470363950613
 Sym= A
 Ene=              26
 Spin= Alpha
 Occup=    0.00000
   1       1.5925267027997
   2       1.7218170797162
   3    1.8868937032855e-11
   4    1.9245314169032e-11
   5    1.9299326029124e-11
   6    -1.0482316091316e-10
   7    0.00068954607957015
   8    0.00068954581640225
   9    1.4173810750727e-10
  10    0.00068954611992677
  11       1.5925267013212
  12       1.7218170781675
  13    -1.875229013258e-11
  14    -1.9129142889364e-11
  15    -1.9182668763698e-11
  16    1.0882963388437e-10
  17    0.00068954597696172
  18    0.00068954607750415
  19    -1.3956574414744e-10
  20    0.00068954595994205
  21      0.34695325208818
  22    6.0565412858045e-10
  23    -1.0094452221079e-10
  24    -2.1241019903825e-10
  25      0.34695325240602
  26    -6.074492584888e-10
  27    9.9148589119027e-11
  28    2.1061355213979e-10
 Sym= A
 Ene=              27
 Spin= Alpha
 Occup=    0.00000
   1      -1.7651820734898
   2      -1.8735973424502
   3    -1.8144099547377e-11
   4    -1.8447497669086e-11
   5    -1.8490470511802e-11
   6    -5.7890857016712e-11
   7    0.0010462291394839
   8    0.0010462292320321
   9    7.4031417320123e-11
  10    0.0010462291254907
  11       1.7651820747983
  12         1.87359734388
  13    -1.8188959462808e-11
  14    -1.8492177800504e-11
  15    -1.853526626501e-11
  16    -4.896138419433e-11
  17    -0.0010462291645506
  18    -0.0010462291719871
  19    6.6657913538444e-11
  20    -0.0010462291639836
  21    1.4188376014855e-10
  22     -0.21613251281695
  23     -0.21613251276839
  24     -0.21613251276168
  25    1.3854982439671e-10
  26      0.21613251309658
  27      0.21613251304618
  28      0.21613251303921
