[Molden Format]
made by pyscf v[2.4.0]
[Atoms] (AU)
B   1   5    -1.08409187066585     0.00000000000000     6.82151182571742
H   2   1    -1.12977804063143     0.00000000000000     8.85194366939414
C   3   6     1.11987446789274     0.00000000000000     5.52559810182942
H   4   1     1.09399544340453     0.00000000000000     3.49140808421974
C   5   6     4.05696855673198     0.00000000000000     5.59010598308605
H   6   1     5.46039568154379     0.00000000000000     7.05814310907606
C   7   6     4.69905871823974     0.00000000000000     3.11531705759047
H   8   1     3.24236992885984     0.00000000000000     1.69522673562278
C   9   6     6.82151182571742     0.00000000000000     1.08409187066585
H   10   1     8.85194366939414     0.00000000000000     1.12977804063143
C   11   6     5.52559810182943     0.00000000000000    -1.11987446789274
H   12   1     3.49140808421974     0.00000000000000    -1.09399544340453
C   13   6     5.59010598308605     0.00000000000000    -4.05696855673198
H   14   1     7.05814310907606     0.00000000000000    -5.46039568154379
C   15   6     3.11531705759047     0.00000000000000    -4.69905871823974
H   16   1     1.69522673562278     0.00000000000000    -3.24236992885984
N   17   7     1.08409187066585     0.00000000000000    -6.82151182571742
H   18   1     1.12977804063143     0.00000000000000    -8.85194366939414
C   19   6    -1.11987446789274     0.00000000000000    -5.52559810182943
H   20   1    -1.09399544340453     0.00000000000000    -3.49140808421974
C   21   6    -4.05696855673198     0.00000000000000    -5.59010598308605
H   22   1    -5.46039568154379     0.00000000000000    -7.05814310907606
C   23   6    -4.69905871823974     0.00000000000000    -3.11531705759047
H   24   1    -3.24236992885984     0.00000000000000    -1.69522673562278
C   25   6    -6.82151182571742     0.00000000000000    -1.08409187066585
H   26   1    -8.85194366939414     0.00000000000000    -1.12977804063143
C   27   6    -5.52559810182943     0.00000000000000     1.11987446789274
H   28   1    -3.49140808421974     0.00000000000000     1.09399544340453
C   29   6    -5.59010598308605     0.00000000000000     4.05696855673198
H   30   1    -7.05814310907606     0.00000000000000     5.46039568154379
C   31   6    -3.11531705759047     0.00000000000000     4.69905871823974
H   32   1    -1.69522673562278     0.00000000000000     3.24236992885984
[GTO]
1 0
 s    3 1.00
               116.434    0.06296046589021
               17.4314    0.36330380317464
               3.68016     0.6972546222517
 s    2 1.00
               2.28187   -0.36866347731924
              0.465248     1.1994448064509
 s    1 1.00
              0.124328                   1
 p    2 1.00
               2.28187    0.23115190231462
              0.465248    0.86676363370351
 p    1 1.00
              0.124328                   1

2 0
 s    2 1.00
              5.447178     0.1562849806701
              0.824547    0.90469088810453
 s    1 1.00
              0.183192                   1

3 0
 s    3 1.00
               172.256   0.061766907377115
               25.9109    0.35879404285247
               5.53335    0.70071308368949
 s    2 1.00
               3.66498   -0.39589516211925
              0.770545     1.2158343556811
 s    1 1.00
              0.195857                   1
 p    2 1.00
               3.66498    0.23645994661946
              0.770545    0.86061880571636
 p    1 1.00
              0.195857                   1

4 0
 s    2 1.00
              5.447178     0.1562849806701
              0.824547    0.90469088810453
 s    1 1.00
              0.183192                   1

5 0
 s    3 1.00
               172.256   0.061766907377115
               25.9109    0.35879404285247
               5.53335    0.70071308368949
 s    2 1.00
               3.66498   -0.39589516211925
              0.770545     1.2158343556811
 s    1 1.00
              0.195857                   1
 p    2 1.00
               3.66498    0.23645994661946
              0.770545    0.86061880571636
 p    1 1.00
              0.195857                   1

6 0
 s    2 1.00
              5.447178     0.1562849806701
              0.824547    0.90469088810453
 s    1 1.00
              0.183192                   1

7 0
 s    3 1.00
               172.256   0.061766907377115
               25.9109    0.35879404285247
               5.53335    0.70071308368949
 s    2 1.00
               3.66498   -0.39589516211925
              0.770545     1.2158343556811
 s    1 1.00
              0.195857                   1
 p    2 1.00
               3.66498    0.23645994661946
              0.770545    0.86061880571636
 p    1 1.00
              0.195857                   1

8 0
 s    2 1.00
              5.447178     0.1562849806701
              0.824547    0.90469088810453
 s    1 1.00
              0.183192                   1

9 0
 s    3 1.00
               172.256   0.061766907377115
               25.9109    0.35879404285247
               5.53335    0.70071308368949
 s    2 1.00
               3.66498   -0.39589516211925
              0.770545     1.2158343556811
 s    1 1.00
              0.195857                   1
 p    2 1.00
               3.66498    0.23645994661946
              0.770545    0.86061880571636
 p    1 1.00
              0.195857                   1

10 0
 s    2 1.00
              5.447178     0.1562849806701
              0.824547    0.90469088810453
 s    1 1.00
              0.183192                   1

11 0
 s    3 1.00
               172.256   0.061766907377115
               25.9109    0.35879404285247
               5.53335    0.70071308368949
 s    2 1.00
               3.66498   -0.39589516211925
              0.770545     1.2158343556811
 s    1 1.00
              0.195857                   1
 p    2 1.00
               3.66498    0.23645994661946
              0.770545    0.86061880571636
 p    1 1.00
              0.195857                   1

12 0
 s    2 1.00
              5.447178     0.1562849806701
              0.824547    0.90469088810453
 s    1 1.00
              0.183192                   1

13 0
 s    3 1.00
               172.256   0.061766907377115
               25.9109    0.35879404285247
               5.53335    0.70071308368949
 s    2 1.00
               3.66498   -0.39589516211925
              0.770545     1.2158343556811
 s    1 1.00
              0.195857                   1
 p    2 1.00
               3.66498    0.23645994661946
              0.770545    0.86061880571636
 p    1 1.00
              0.195857                   1

14 0
 s    2 1.00
              5.447178     0.1562849806701
              0.824547    0.90469088810453
 s    1 1.00
              0.183192                   1

15 0
 s    3 1.00
               172.256   0.061766907377115
               25.9109    0.35879404285247
               5.53335    0.70071308368949
 s    2 1.00
               3.66498   -0.39589516211925
              0.770545     1.2158343556811
 s    1 1.00
              0.195857                   1
 p    2 1.00
               3.66498    0.23645994661946
              0.770545    0.86061880571636
 p    1 1.00
              0.195857                   1

16 0
 s    2 1.00
              5.447178     0.1562849806701
              0.824547    0.90469088810453
 s    1 1.00
              0.183192                   1

17 0
 s    3 1.00
               242.766   0.059865700507811
               36.4851    0.35295500299394
               7.81449    0.70651300599299
 s    2 1.00
               5.42522   -0.41330007742987
               1.14915     1.2244172668507
 s    1 1.00
              0.283205                   1
 p    2 1.00
               5.42522     0.2379720162216
               1.14915    0.85895305855138
 p    1 1.00
              0.283205                   1

18 0
 s    2 1.00
              5.447178     0.1562849806701
              0.824547    0.90469088810453
 s    1 1.00
              0.183192                   1

19 0
 s    3 1.00
               172.256   0.061766907377115
               25.9109    0.35879404285247
               5.53335    0.70071308368949
 s    2 1.00
               3.66498   -0.39589516211925
              0.770545     1.2158343556811
 s    1 1.00
              0.195857                   1
 p    2 1.00
               3.66498    0.23645994661946
              0.770545    0.86061880571636
 p    1 1.00
              0.195857                   1

20 0
 s    2 1.00
              5.447178     0.1562849806701
              0.824547    0.90469088810453
 s    1 1.00
              0.183192                   1

21 0
 s    3 1.00
               172.256   0.061766907377115
               25.9109    0.35879404285247
               5.53335    0.70071308368949
 s    2 1.00
               3.66498   -0.39589516211925
              0.770545     1.2158343556811
 s    1 1.00
              0.195857                   1
 p    2 1.00
               3.66498    0.23645994661946
              0.770545    0.86061880571636
 p    1 1.00
              0.195857                   1

22 0
 s    2 1.00
              5.447178     0.1562849806701
              0.824547    0.90469088810453
 s    1 1.00
              0.183192                   1

23 0
 s    3 1.00
               172.256   0.061766907377115
               25.9109    0.35879404285247
               5.53335    0.70071308368949
 s    2 1.00
               3.66498   -0.39589516211925
              0.770545     1.2158343556811
 s    1 1.00
              0.195857                   1
 p    2 1.00
               3.66498    0.23645994661946
              0.770545    0.86061880571636
 p    1 1.00
              0.195857                   1

24 0
 s    2 1.00
              5.447178     0.1562849806701
              0.824547    0.90469088810453
 s    1 1.00
              0.183192                   1

25 0
 s    3 1.00
               172.256   0.061766907377115
               25.9109    0.35879404285247
               5.53335    0.70071308368949
 s    2 1.00
               3.66498   -0.39589516211925
              0.770545     1.2158343556811
 s    1 1.00
              0.195857                   1
 p    2 1.00
               3.66498    0.23645994661946
              0.770545    0.86061880571636
 p    1 1.00
              0.195857                   1

26 0
 s    2 1.00
              5.447178     0.1562849806701
              0.824547    0.90469088810453
 s    1 1.00
              0.183192                   1

27 0
 s    3 1.00
               172.256   0.061766907377115
               25.9109    0.35879404285247
               5.53335    0.70071308368949
 s    2 1.00
               3.66498   -0.39589516211925
              0.770545     1.2158343556811
 s    1 1.00
              0.195857                   1
 p    2 1.00
               3.66498    0.23645994661946
              0.770545    0.86061880571636
 p    1 1.00
              0.195857                   1

28 0
 s    2 1.00
              5.447178     0.1562849806701
              0.824547    0.90469088810453
 s    1 1.00
              0.183192                   1

29 0
 s    3 1.00
               172.256   0.061766907377115
               25.9109    0.35879404285247
               5.53335    0.70071308368949
 s    2 1.00
               3.66498   -0.39589516211925
              0.770545     1.2158343556811
 s    1 1.00
              0.195857                   1
 p    2 1.00
               3.66498    0.23645994661946
              0.770545    0.86061880571636
 p    1 1.00
              0.195857                   1

30 0
 s    2 1.00
              5.447178     0.1562849806701
              0.824547    0.90469088810453
 s    1 1.00
              0.183192                   1

31 0
 s    3 1.00
               172.256   0.061766907377115
               25.9109    0.35879404285247
               5.53335    0.70071308368949
 s    2 1.00
               3.66498   -0.39589516211925
              0.770545     1.2158343556811
 s    1 1.00
              0.195857                   1
 p    2 1.00
               3.66498    0.23645994661946
              0.770545    0.86061880571636
 p    1 1.00
              0.195857                   1

32 0
 s    2 1.00
              5.447178     0.1562849806701
              0.824547    0.90469088810453
 s    1 1.00
              0.183192                   1

[5d]
[7f]
[9g]

[MO]
 Sym= A
 Ene=               0
 Spin= Alpha
 Occup=    1.00000
   1    2.7458150207459e-16
   2    5.6044457290012e-16
   3    -6.3784412978409e-15
   4    6.7986016104835e-16
   5      -0.2640874687228
   6    -2.3632292439434e-17
   7    -2.3038253963722e-15
   8     -0.26355187168652
   9    1.0938046364811e-14
  10    7.4226461185635e-17
  11    -5.7089378262869e-15
  12    -3.8423878223535e-16
  13    -5.9359515359545e-16
  14    7.471541244836e-15
  15    9.1834493411521e-16
  16     -0.38388246794942
  17    1.0695618884747e-15
  18    -5.8925872593906e-15
  19     -0.47884149218221
  20    -2.5107287303582e-15
  21    -4.9759624489897e-16
  22    -1.2025526679647e-15
  23    -8.3742270952747e-17
  24    -1.0659727979251e-16
  25    2.4493051007117e-15
  26    -6.8197990023949e-17
  27      0.05547112060321
  28    1.9872422384719e-16
  29    -1.5899674624516e-15
  30     0.068503818688093
  31    6.2124585149742e-16
  32    -1.7470707178558e-16
  33    -7.9708362861903e-17
  34    4.3108751594525e-18
  35    9.8976240721053e-17
  36    -2.2404080763858e-16
  37    -2.7612675868449e-17
  38    0.0025635227360273
  39    4.5889768903539e-17
  40    4.8545364802562e-16
  41    0.0030103123287929
  42    5.3138007279219e-16
  43    -1.1834740128182e-16
  44    9.7548679071903e-16
  45    -1.0385598180723e-17
  46    3.4904032748713e-17
  47    2.5569387074094e-16
  48    -2.1782704024338e-17
  49    -0.00082438927031563
  50    -6.6607951955139e-17
  51    -1.4654253791974e-16
  52    -0.0015068199162485
  53    -2.1192104370294e-16
  54    4.9657426832448e-17
  55    9.4198367505509e-17
  56    9.6574069353358e-18
  57    -4.0945450220067e-18
  58    5.1570697275339e-17
  59    -1.9052595584843e-16
  60    8.7461236979731e-05
  61    -4.2092811474873e-17
  62    -3.1768841056998e-16
  63    0.00050752808066341
  64    -3.1191654628458e-16
  65    -5.2881145368074e-17
  66    -6.4003097037192e-16
  67      7.5789655271e-20
  68    -9.7887015081866e-18
  69    -2.268319711908e-16
  70    6.578896042351e-17
  71    -2.6029166528842e-06
  72    -7.2789919467357e-17
  73    9.1239452200758e-17
  74    -0.00013565615633412
  75    -1.3181942003938e-16
  76    -1.2135489403352e-16
  77    -1.661810514695e-16
  78    1.5393425706439e-17
  79    -3.5951823747154e-17
  80    -1.158424893215e-16
  81    1.490518817889e-16
  82    5.8502470158178e-06
  83    -2.0148841952024e-17
  84    3.2086184344801e-16
  85    5.5630691861269e-06
  86    1.0188858077505e-16
  87    1.0805636916703e-16
  88    3.9640736902145e-16
  89    -3.3576843605851e-18
  90    -2.2968347058961e-17
  91    1.6171311447387e-16
  92    -3.4246660131864e-17
  93    -3.572290645937e-07
  94    -3.3992603017714e-17
  95    -3.5016190792324e-18
  96    2.0097576894272e-06
  97     3.78417934978e-17
  98    6.2140087830843e-17
  99    1.1416348552829e-16
 100    -1.7792871195306e-17
 101    2.925686270373e-17
 102    1.2409309901677e-16
 103    -7.4147722994028e-17
 104    1.3199813997579e-06
 105    4.3907788214952e-17
 106    -1.5626579026927e-16
 107    -3.232811699193e-06
 108    3.0851763327576e-17
 109    -7.6020627557345e-17
 110    -1.451647611122e-16
 111    -1.8956076790619e-17
 112    3.8764736250343e-18
 113    -4.9248449306202e-17
 114    -5.0259532752352e-17
 115    -1.8974373939352e-06
 116    -6.5701300908939e-17
 117    -9.8508048977536e-17
 118    1.3228570243947e-05
 119    -8.2641473229148e-17
 120    -7.3274120948775e-17
 121    -1.3057305616467e-16
 122    -5.678013141075e-18
 123    6.1478170731468e-17
 124    1.398471022972e-16
 125    8.2882278161703e-17
 126    1.3208185397503e-06
 127    -5.7522133982549e-17
 128     1.01408035676e-16
 129    -2.7820908962619e-05
 130    -8.2248224614832e-17
 131    -8.8307961172282e-17
 132    -1.7098890751793e-16
 133    -1.1005648002978e-18
 134    5.1070057767997e-17
 135    -1.8875651014367e-16
 136    9.3826631116478e-18
 137    0.00017195853716139
 138    1.584553679989e-16
 139    -7.0858274734581e-17
 140    0.00010413911977223
 141    3.2715457778062e-17
 142    1.7681973802316e-18
 143    -6.9295071372812e-18
 144    3.900709629623e-17
 145    -3.8446683300209e-17
 146    -3.4808977566844e-16
 147    7.4657669940795e-17
 148    -0.00062491947435057
 149    8.2036355250973e-17
 150    -1.514219489882e-16
 151    -0.00030596699789353
 152    -4.4848408143592e-16
 153    -1.3789203158308e-17
 154    1.2354307346161e-16
 155    -7.1604422407232e-18
 156    -6.6850052009864e-18
 157    4.4599917532758e-16
 158    3.2215133348749e-17
 159    -0.005208176265085
 160    -8.3735062618349e-17
 161    -7.3956425156885e-17
 162    -0.0064790200974226
 163    -2.8862670240312e-16
 164    1.7994472182605e-16
 165    -1.1369394031456e-17
 166    -9.5441073813997e-17
 167    -2.308075430723e-16
 168    4.6267844685846e-15
 169    1.8578082476508e-16
 170     0.052632395336874
 171    2.6301655181803e-16
 172    1.5995203482024e-15
 173      0.05213584532084
 174    2.1666045342183e-16
 175    -3.2519166012507e-16
 176    6.7325937038835e-16
 Sym= A
 Ene=               1
 Spin= Alpha
 Occup=    1.00000
   1    2.4576130608337e-16
   2    1.056356127747e-15
   3    2.2149506484555e-15
   4    4.7022880579293e-16
   5      0.56320153371751
   6    -7.9900393670472e-16
   7    -3.4424736323211e-16
   8      0.58258222463117
   9    -8.5366452082601e-15
  10    2.1028680452213e-16
  11    5.2194779209691e-15
  12    2.2219587688858e-16
  13    8.2896292616223e-16
  14    -3.9418406789401e-15
  15    -4.1625703469489e-16
  16     -0.46870066474256
  17    -7.0772384611835e-16
  18    8.3214769839501e-15
  19     -0.46843439061437
  20    3.1585121263942e-15
  21    5.0509493264083e-16
  22    2.0856909278729e-15
  23    9.1735433339906e-17
  24    1.5914829169304e-17
  25    -3.9198473288192e-15
  26    5.5245423653316e-16
  27     0.047864781416741
  28    -1.4954807050714e-16
  29    2.7839450928408e-15
  30     0.047925720006169
  31    -3.9975125249331e-17
  32    -1.5148547714945e-18
  33    -3.0119725305716e-16
  34    1.442388935488e-17
  35    4.8474712026686e-18
  36    6.4808280608283e-16
  37    -1.1964179475989e-16
  38    0.0041505660848273
  39    5.7545608189459e-17
  40    -6.5759974606005e-16
  41    0.0046696334390363
  42    -5.8803318207274e-16
  43    -8.4777478611961e-17
  44    -1.7274662720352e-15
  45    1.210784496465e-17
  46    -9.0581924424829e-17
  47    -4.4640103189002e-16
  48    -5.3225378206606e-17
  49    -0.0010302183765176
  50    1.4685782982762e-16
  51    4.1100929881071e-17
  52    -0.0014098711520254
  53    2.346588619819e-16
  54    1.3652651689115e-16
  55    2.0630583245934e-16
  56    -9.2030907064532e-17
  57    1.8017473084542e-16
  58    2.1992336939194e-16
  59    1.9271734505469e-17
  60    0.0001064032156039
  61    5.0183694627648e-17
  62    2.2892136850782e-16
  63    0.00023193985074342
  64    4.4285214115916e-16
  65    -1.3902305850004e-16
  66    6.3079545122378e-16
  67    -3.9989769340202e-17
  68    1.7920290761455e-17
  69    4.9967261142416e-16
  70    -8.7687996110079e-17
  71    -6.0094453642884e-06
  72    -2.084333208234e-17
  73    -1.915946846695e-16
  74    -3.968350764939e-05
  75    5.5144830855195e-17
  76    2.0506398913635e-17
  77    3.4107905423212e-17
  78    4.3899666102217e-17
  79    -1.1552023497075e-16
  80    -3.1375219769856e-16
  81    1.1882844018136e-16
  82    5.1279962159034e-07
  83    -2.3910529543781e-17
  84    -1.8990860642013e-16
  85    -5.6507659146936e-06
  86    -1.641079045131e-16
  87    2.3092026531109e-16
  88    -5.566584645674e-17
  89    -3.7563329191248e-17
  90    1.0050688435778e-16
  91    2.1455060228247e-17
  92    8.0792457465374e-18
  93    -2.3481080264229e-07
  94    -4.974981247012e-17
  95    -2.8518635470017e-17
  96    4.6751898988633e-06
  97    -1.4077883525525e-16
  98    -4.1985748969193e-17
  99    -6.6459060015859e-17
 100    6.4849881188229e-18
 101    2.8689683400587e-17
 102    2.0414482198919e-17
 103    -2.3757911981714e-17
 104    6.9160165362653e-07
 105    9.1262449449926e-17
 106    8.5029509168831e-17
 107    -6.138308070033e-06
 108    8.8501970048666e-17
 109    -1.4445154594706e-16
 110    -1.1728730547435e-16
 111    -3.8049861685396e-17
 112    9.4482659931001e-17
 113    3.6197595113699e-16
 114    -1.5377687339576e-16
 115    4.1080228762258e-07
 116    5.4089404107861e-17
 117    -7.2580588206619e-17
 118    -4.6959751060004e-06
 119    9.3636748132851e-17
 120    -4.8349409390942e-17
 121    -5.1017088585437e-17
 122    -5.0479801277385e-18
 123    -5.0578541931675e-18
 124    -6.5063186250094e-17
 125    6.7479439930344e-17
 126    4.9952964832729e-06
 127    1.7910238044001e-16
 128    -8.8090866212712e-17
 129    4.6109784331089e-05
 130    2.7200352445357e-16
 131    -4.6825367508689e-17
 132    1.0154382400082e-16
 133    4.4404386893976e-17
 134    -7.5240349699532e-17
 135    -8.7656305923607e-17
 136    -6.2191208984318e-17
 137    -0.00029443076716407
 138    -1.3238835901646e-17
 139    -9.1367985178499e-17
 140    -0.00062502008259856
 141    1.1892975272972e-16
 142    6.2835133076396e-17
 143    9.7646537221208e-17
 144    -2.577093175749e-17
 145    -4.0128850550639e-17
 146    3.9887020652282e-16
 147    7.605917388147e-17
 148    0.0011559675001218
 149    4.0068472961303e-17
 150    3.3472834344495e-16
 151    0.0018555322356474
 152    3.1271977025711e-16
 153    6.2789617036417e-17
 154    -5.3080150783022e-16
 155    -7.8493103293694e-17
 156    1.6003862709811e-16
 157    9.7783928767798e-16
 158    2.0260719657918e-16
 159    0.0047721737240997
 160    5.8101529605412e-17
 161    4.8875700106811e-16
 162    0.0048667559238238
 163    3.0192776453221e-16
 164    -1.5070411363055e-16
 165    -9.2506054129941e-17
 166    6.573556216902e-17
 167    1.6479255602291e-17
 168    -4.0909379815227e-15
 169    -5.5284768682896e-17
 170    -0.076647497774241
 171    -8.9551194748978e-17
 172    3.5419347066893e-16
 173    -0.080793562837356
 174    -1.1207966627071e-16
 175    2.6708085579374e-16
 176    -3.3171633842784e-17
 Sym= A
 Ene=               2
 Spin= Alpha
 Occup=    1.00000
   1    -4.2603463921512e-17
   2    -2.3709419913671e-16
   3    -1.5225870431677e-16
   4    -5.8889142769717e-17
   5    -0.0063284236250625
   6    3.0509949320884e-17
   7    1.1860437512017e-16
   8    -0.0071645631595813
   9    4.5225105342593e-16
  10    8.0015088162674e-18
  11    -2.9993745662478e-16
  12    3.2527400517468e-17
  13    -5.257050272088e-18
  14    -1.2893088563458e-15
  15    -4.129114917372e-17
  16     0.052207117942807
  17    1.0412812950704e-16
  18    -8.7474136807101e-16
  19      0.05848207340273
  20    8.7767695886698e-16
  21    1.6576304080658e-16
  22    1.2898681267445e-15
  23    -7.5602375775923e-17
  24    -1.9334513865616e-15
  25    9.1584445268408e-15
  26    1.0615355048304e-16
  27     -0.31472834842663
  28    1.7180256966302e-17
  29    8.1546420390195e-16
  30     -0.34032545884352
  31    -4.8104979541488e-15
  32    -1.862820523492e-16
  33    1.5554156441998e-17
  34    1.5426652771936e-16
  35    1.6295432369484e-15
  36    -8.6015893484511e-15
  37    -4.5712884245926e-16
  38     -0.35426144998048
  39    7.5915101799532e-17
  40    1.8519046978039e-15
  41     -0.42523106992885
  42    -4.8769652117241e-15
  43    2.1754080380055e-16
  44    9.3480984156463e-16
  45    -1.2717875707483e-17
  46    1.0315693233057e-17
  47    -4.1740172446989e-16
  48    -6.8691195422256e-17
  49     0.048730571439709
  50    1.1665651656504e-18
  51    5.5878340336541e-16
  52     0.057766832514374
  53    3.361946727243e-16
  54    -9.2589511696438e-17
  55    -3.2171233227188e-16
  56    5.2035651568591e-17
  57    -6.3211762389177e-17
  58    3.7945919887596e-16
  59    1.2135317114639e-16
  60    0.0023278380496562
  61    1.2326640834594e-16
  62    1.557482951674e-16
  63    0.0023707551707666
  64    -6.9293883960625e-16
  65    2.0805492333298e-16
  66    -5.6593267488938e-16
  67    5.7617259121929e-17
  68    -4.4608734451325e-17
  69    -8.7729760510504e-16
  70    7.8498840076795e-17
  71    -0.00073392301336782
  72    1.5487946353515e-16
  73    1.3346706509869e-16
  74    -0.0011305771774978
  75    -2.0222607102501e-16
  76    3.1755119967135e-17
  77    1.6863792266985e-17
  78    -4.1217149224074e-18
  79    2.4517716668899e-17
  80    9.4309251443191e-17
  81    1.4714757299777e-16
  82    7.8836683908251e-05
  83    -3.4979750787508e-17
  84    3.3470603785108e-16
  85    0.00036320619354803
  86    1.8529391062344e-16
  87    -2.7793696165438e-18
  88    3.3983828269865e-16
  89    -4.4922216950089e-17
  90    -1.0590212505087e-18
  91    3.4762035386064e-16
  92    -2.5967964290835e-17
  93    1.3956638205567e-06
  94    -2.1105563280102e-17
  95    2.7635033942445e-17
  96    -8.307251408282e-05
  97    5.5402447961261e-17
  98    6.7221067090786e-17
  99    1.2451588379441e-16
 100    1.0115022396695e-17
 101    -2.50836072919e-17
 102    4.8744349226687e-17
 103    1.1977777678626e-17
 104    5.6284462306071e-06
 105    7.8199050414805e-17
 106    -1.5828246815954e-16
 107    -1.0735505603878e-05
 108    9.8906945135203e-17
 109    -2.099610364962e-17
 110    -1.8122569741717e-16
 111    -1.3371648179303e-17
 112    5.3939438108562e-17
 113    -8.72315156111e-17
 114    -5.4227487615132e-17
 115    -1.4792969200862e-07
 116    -1.1523935563292e-16
 117    -1.06640719097e-16
 118    3.3455772330862e-06
 119    -1.3432871953671e-16
 120    -7.207796687382e-17
 121    -1.0306515715813e-16
 122    -1.7240441335706e-17
 123    3.3416237315335e-17
 124    9.2748857514836e-17
 125    2.2546689968768e-17
 126    -7.6012401137804e-07
 127    4.971780594018e-17
 128    9.7629700438958e-17
 129    8.4185280045556e-07
 130    -5.5398825434897e-17
 131    -5.7710776350755e-18
 132    -1.8122777480766e-17
 133    -3.1302659491179e-17
 134    1.2442885505481e-16
 135    2.7331344898657e-16
 136    1.6158543023225e-16
 137    -9.430352729732e-07
 138    1.9474823411618e-16
 139    2.1439568143827e-16
 140    2.7467592018474e-05
 141    1.3172630783576e-16
 142    4.9649702792654e-17
 143    8.6880996298429e-17
 144    1.3588513038564e-17
 145    -5.2761927050978e-17
 146    -1.2284913132001e-16
 147    2.2434559109129e-16
 148    -2.0226319321622e-06
 149    2.3412138358778e-16
 150    1.3118459906493e-16
 151    -8.922895425829e-05
 152    2.9467350680852e-16
 153    -1.3366356650101e-16
 154    5.3674072997977e-17
 155    4.8685670898104e-17
 156    -9.2181942418862e-17
 157    -2.5726662310227e-16
 158    -9.8719367360196e-17
 159    0.00023880097195426
 160    6.9895243317107e-18
 161    -1.1765221706265e-16
 162    0.00049215862591558
 163    1.6583235908907e-16
 164    -1.453228981219e-17
 165    -3.1759972110656e-17
 166    -3.9934836647605e-17
 167    -1.0421208068699e-17
 168    8.3229146257609e-16
 169    1.499938008429e-17
 170    -0.00075439292027801
 171    -1.4889593798402e-17
 172    2.8113667077532e-16
 173    -0.00077590603365354
 174    -1.5943301034854e-16
 175    -1.6879998991542e-18
 176    -7.5222979609193e-16
 Sym= A
 Ene=               3
 Spin= Alpha
 Occup=    1.00000
   1    1.3953231331084e-16
   2    9.7222793477482e-16
   3    8.277820460796e-16
   4    3.956878196012e-16
   5    0.0040702194713006
   6    4.3464600570196e-18
   7    -1.0494744284807e-17
   8    0.0035544687876672
   9    -1.4243113840174e-15
  10    -6.1016152846328e-17
  11    1.0427222538224e-15
  12    -6.9901604566292e-17
  13    -6.198099109858e-17
  14    6.3575633997319e-15
  15    5.7615455448254e-16
  16    -0.050278121917452
  17    -9.9195279659723e-17
  18    3.6415231906522e-15
  19    -0.051089019528419
  20    -4.3648363587742e-15
  21    -1.4101190330995e-16
  22    -7.583200415626e-15
  23    5.9977390169716e-16
  24    4.3517775792744e-15
  25    -3.2231163402434e-14
  26    -1.1566550864987e-16
  27      0.51878880669409
  28    9.4265832688616e-17
  29    1.6035784584867e-16
  30      0.51898764464796
  31    1.9350316943841e-14
  32    3.9407806838756e-17
  33    -2.8413978579488e-15
  34    -2.7353758478687e-16
  35    -1.8148645594375e-15
  36    1.7628008866611e-14
  37    1.6618167204233e-16
  38      -0.4798728348548
  39    -1.7006026946546e-15
  40    -7.7799143848837e-15
  41     -0.47958814830228
  42    2.7414128828757e-14
  43    4.2065405277966e-16
  44    5.1745692158417e-15
  45    -9.2007864523336e-17
  46    -5.3457059086882e-16
  47    9.1640840839475e-15
  48    -4.0746683424793e-16
  49     0.054894583750962
  50    7.2964219100229e-16
  51    -7.9534752646066e-15
  52     0.056526897365319
  53    -1.9026442237046e-16
  54    6.8354470476196e-16
  55    2.7700596131896e-15
  56    -1.1420238420933e-16
  57    -5.6653207919706e-16
  58    -2.6167270163673e-15
  59    -3.1720265480403e-17
  60    0.0043878825674124
  61    -3.9042649107127e-16
  62    -1.1185849505975e-15
  63    0.0045265574240796
  64    7.4845080365833e-16
  65    -9.0468541884954e-17
  66    -2.0433332533768e-16
  67    -1.6301448191229e-17
  68    -1.6690265156695e-16
  69    7.6862572937558e-16
  70    -4.9967115177525e-17
  71    -0.001116305269818
  72    1.1070913646006e-16
  73    5.8299912871345e-16
  74    -0.0014008768892611
  75    9.1448606852522e-16
  76    -3.108782404548e-17
  77    -4.0468284288182e-17
  78    1.1019166264451e-17
  79    -8.8276057157518e-17
  80    4.5847726460571e-16
  81    1.7170503421855e-16
  82    0.00011846629340859
  83    -2.0264938210321e-17
  84    3.7653037239973e-16
  85    0.00027108416265207
  86    -2.182523831674e-16
  87    1.4083449639699e-16
  88    -8.4678599583342e-17