[Molden Format]
made by pyscf v[2.4.0]
[Atoms] (AU)
C   1   6    -1.11578993758241     0.00000000000000    48.17955843404815
H   2   1    -1.11075777077595     0.00000000000000    50.23258304534751
C   3   6     1.11578993758241     0.00000000000000    46.94668489531117
H   4   1     1.11075777077595     0.00000000000000    44.89366028401182
C   5   6     3.61200543598982     0.00000000000000    48.05692723026568
H   6   1     3.81824497296345     0.00000000000000    50.09957272831289
C   7   6     5.71199690544792     0.00000000000000    46.61125723681568
H   8   1     5.50575736847429     0.00000000000000    44.56861173876847
C   9   6     8.30501522269045     0.00000000000000    47.47148154666705
H   10   1     8.71047593034819     0.00000000000000    49.48407613869232
C   11   6    10.25319422061883     0.00000000000000    45.82693769082456
H   12   1     9.84773351296109     0.00000000000000    43.81434309879930
C   13   6    12.91804317281344     0.00000000000000    46.42885954522249
H   14   1    13.51882024289318     0.00000000000000    48.39202084510849
C   15   6    14.69564767047908     0.00000000000000    44.60127968331841
H   16   1    14.09487060039934     0.00000000000000    42.63811838343241
C   17   6    17.40666330546152     0.00000000000000    44.93910224576109
H   18   1    18.19697092636023     0.00000000000000    46.83392393701678
C   19   6    18.99657399981443     0.00000000000000    42.94608697092231
H   20   1    18.20626637891572     0.00000000000000    41.05126527966662
C   21   6    21.72764775502792     0.00000000000000    43.01655682546082
H   22   1    22.69987483233026     0.00000000000000    44.82479073938452
C   23   6    23.11455293694789     0.00000000000000    40.87729996427702
H   24   1    22.14232585964555     0.00000000000000    39.06906605035334
C   25   6    25.83938307917294     0.00000000000000    40.67973844768942
H   26   1    26.98416653465111     0.00000000000000    42.38397030320883
C   27   6    27.00992609359859     0.00000000000000    38.41484221317056
H   28   1    25.86514263812042     0.00000000000000    36.71061035765115
C   29   6    29.70227101902191     0.00000000000000    37.95115195085969
H   30   1    31.00858596219736     0.00000000000000    39.53496906357826
C   31   6    30.64517889684043     0.00000000000000    35.58242853186240
H   32   1    29.33886395366498     0.00000000000000    33.99861141914383
C   33   6    33.27910985204473     0.00000000000000    34.85707511453320
H   34   1    34.73437575591029     0.00000000000000    36.30522445985295
C   35   6    33.98530187494683     0.00000000000000    32.40733661245837
H   36   1    32.53003597108128     0.00000000000000    30.95918726713862
C   37   6    36.53545266498038     0.00000000000000    31.42730559003823
H   38   1    38.12565452335257     0.00000000000000    32.72584069812476
C   39   6    36.99812781774170     0.00000000000000    28.92014432582411
H   40   1    35.40792595936952     0.00000000000000    27.62160921773757
C   41   6    39.43993909644225     0.00000000000000    27.69487393279840
H   42   1    41.14976239613217     0.00000000000000    28.83128920070936
C   43   6    39.65464156441772     0.00000000000000    25.15443523997315
H   44   1    37.94481826472781     0.00000000000000    24.01801997206219
C   45   6    41.96459735434156     0.00000000000000    23.69572550002763
H   46   1    43.77757556228871     0.00000000000000    24.65907662750525
C   47   6    41.92925943539628     0.00000000000000    21.14647519194820
H   48   1    40.11628122744913     0.00000000000000    20.18312406447058
C   49   6    44.08511359953616     0.00000000000000    19.46837427729039
H   50   1    45.98378674452331     0.00000000000000    20.24938366635577
C   51   6    43.80007561714724     0.00000000000000    16.93486302798556
H   52   1    41.90140247216009     0.00000000000000    16.15385363892019
C   53   6    45.78106610139273     0.00000000000000    15.05353196776691
H   54   1    47.74714892311333     0.00000000000000    15.64467807106018
C   55   6    45.24907312714819     0.00000000000000    12.56015887552561
H   56   1    43.28299030542759     0.00000000000000    11.96901277223234
C   57   6    47.03612191021644     0.00000000000000    10.49371591629619
H   58   1    49.05067995632712     0.00000000000000    10.88930567368931
C   59   6    46.26229732727518     0.00000000000000     8.06449352701310
H   60   1    44.24773928116450     0.00000000000000     7.66890376961998
C   61   6    47.83819415248502     0.00000000000000     5.83283964410291
H   62   1    49.88182612773230     0.00000000000000     6.02906330998083
C   63   6    46.82999031459633     0.00000000000000     3.49116269733485
H   64   1    44.78635833934905     0.00000000000000     3.29493903145693
C   65   6    48.17955843404815     0.00000000000000     1.11578993758241
H   66   1    50.23258304534751     0.00000000000000     1.11075777077596
C   67   6    46.94668489531117     0.00000000000000    -1.11578993758241
H   68   1    44.89366028401182     0.00000000000000    -1.11075777077595
C   69   6    48.05692723026568     0.00000000000000    -3.61200543598983
H   70   1    50.09957272831289     0.00000000000000    -3.81824497296345
C   71   6    46.61125723681568     0.00000000000000    -5.71199690544792
H   72   1    44.56861173876847     0.00000000000000    -5.50575736847430
C   73   6    47.47148154666705     0.00000000000000    -8.30501522269045
H   74   1    49.48407613869232     0.00000000000000    -8.71047593034819
C   75   6    45.82693769082456     0.00000000000000   -10.25319422061883
H   76   1    43.81434309879930     0.00000000000000    -9.84773351296109
C   77   6    46.42885954522250     0.00000000000000   -12.91804317281344
H   78   1    48.39202084510850     0.00000000000000   -13.51882024289317
C   79   6    44.60127968331842     0.00000000000000   -14.69564767047907
H   80   1    42.63811838343242     0.00000000000000   -14.09487060039934
C   81   6    44.93910224576109     0.00000000000000   -17.40666330546151
H   82   1    46.83392393701678     0.00000000000000   -18.19697092636023
C   83   6    42.94608697092231     0.00000000000000   -18.99657399981443
H   84   1    41.05126527966662     0.00000000000000   -18.20626637891572
C   85   6    43.01655682546082     0.00000000000000   -21.72764775502792
H   86   1    44.82479073938452     0.00000000000000   -22.69987483233026
C   87   6    40.87729996427702     0.00000000000000   -23.11455293694790
H   88   1    39.06906605035334     0.00000000000000   -22.14232585964555
C   89   6    40.67973844768944     0.00000000000000   -25.83938307917293
H   90   1    42.38397030320885     0.00000000000000   -26.98416653465110
C   91   6    38.41484221317057     0.00000000000000   -27.00992609359858
H   92   1    36.71061035765116     0.00000000000000   -25.86514263812041
C   93   6    37.95115195085970     0.00000000000000   -29.70227101902190
H   94   1    39.53496906357827     0.00000000000000   -31.00858596219735
C   95   6    35.58242853186240     0.00000000000000   -30.64517889684042
H   96   1    33.99861141914383     0.00000000000000   -29.33886395366497
C   97   6    34.85707511453320     0.00000000000000   -33.27910985204473
H   98   1    36.30522445985295     0.00000000000000   -34.73437575591029
C   99   6    32.40733661245837     0.00000000000000   -33.98530187494683
H   100   1    30.95918726713862     0.00000000000000   -32.53003597108128
C   101   6    31.42730559003823     0.00000000000000   -36.53545266498038
H   102   1    32.72584069812476     0.00000000000000   -38.12565452335257
C   103   6    28.92014432582411     0.00000000000000   -36.99812781774170
H   104   1    27.62160921773757     0.00000000000000   -35.40792595936952
C   105   6    27.69487393279839     0.00000000000000   -39.43993909644226
H   106   1    28.83128920070935     0.00000000000000   -41.14976239613218
C   107   6    25.15443523997314     0.00000000000000   -39.65464156441773
H   108   1    24.01801997206218     0.00000000000000   -37.94481826472781
C   109   6    23.69572550002763     0.00000000000000   -41.96459735434156
H   110   1    24.65907662750525     0.00000000000000   -43.77757556228871
C   111   6    21.14647519194820     0.00000000000000   -41.92925943539628
H   112   1    20.18312406447058     0.00000000000000   -40.11628122744913
C   113   6    19.46837427729039     0.00000000000000   -44.08511359953616
H   114   1    20.24938366635577     0.00000000000000   -45.98378674452331
C   115   6    16.93486302798557     0.00000000000000   -43.80007561714724
H   116   1    16.15385363892019     0.00000000000000   -41.90140247216009
C   117   6    15.05353196776691     0.00000000000000   -45.78106610139272
H   118   1    15.64467807106018     0.00000000000000   -47.74714892311332
C   119   6    12.56015887552562     0.00000000000000   -45.24907312714818
H   120   1    11.96901277223234     0.00000000000000   -43.28299030542758
C   121   6    10.49371591629621     0.00000000000000   -47.03612191021644
H   122   1    10.88930567368933     0.00000000000000   -49.05067995632712
C   123   6     8.06449352701311     0.00000000000000   -46.26229732727518
H   124   1     7.66890376961999     0.00000000000000   -44.24773928116450
C   125   6     5.83283964410291     0.00000000000000   -47.83819415248502
H   126   1     6.02906330998083     0.00000000000000   -49.88182612773230
C   127   6     3.49116269733485     0.00000000000000   -46.82999031459633
H   128   1     3.29493903145693     0.00000000000000   -44.78635833934905
C   129   6     1.11578993758242     0.00000000000000   -48.17955843404815
H   130   1     1.11075777077596     0.00000000000000   -50.23258304534751
C   131   6    -1.11578993758240     0.00000000000000   -46.94668489531117
H   132   1    -1.11075777077595     0.00000000000000   -44.89366028401182
C   133   6    -3.61200543598982     0.00000000000000   -48.05692723026568
H   134   1    -3.81824497296345     0.00000000000000   -50.09957272831289
C   135   6    -5.71199690544792     0.00000000000000   -46.61125723681568
H   136   1    -5.50575736847429     0.00000000000000   -44.56861173876847
C   137   6    -8.30501522269046     0.00000000000000   -47.47148154666705
H   138   1    -8.71047593034819     0.00000000000000   -49.48407613869232
C   139   6   -10.25319422061883     0.00000000000000   -45.82693769082456
H   140   1    -9.84773351296110     0.00000000000000   -43.81434309879930
C   141   6   -12.91804317281343     0.00000000000000   -46.42885954522250
H   142   1   -13.51882024289316     0.00000000000000   -48.39202084510850
C   143   6   -14.69564767047907     0.00000000000000   -44.60127968331842
H   144   1   -14.09487060039934     0.00000000000000   -42.63811838343242
C   145   6   -17.40666330546151     0.00000000000000   -44.93910224576110
H   146   1   -18.19697092636023     0.00000000000000   -46.83392393701678
C   147   6   -18.99657399981443     0.00000000000000   -42.94608697092232
H   148   1   -18.20626637891572     0.00000000000000   -41.05126527966662
C   149   6   -21.72764775502792     0.00000000000000   -43.01655682546082
H   150   1   -22.69987483233026     0.00000000000000   -44.82479073938452
C   151   6   -23.11455293694789     0.00000000000000   -40.87729996427702
H   152   1   -22.14232585964555     0.00000000000000   -39.06906605035334
C   153   6   -25.83938307917293     0.00000000000000   -40.67973844768944
H   154   1   -26.98416653465110     0.00000000000000   -42.38397030320885
C   155   6   -27.00992609359858     0.00000000000000   -38.41484221317057
H   156   1   -25.86514263812041     0.00000000000000   -36.71061035765116
C   157   6   -29.70227101902190     0.00000000000000   -37.95115195085970
H   158   1   -31.00858596219735     0.00000000000000   -39.53496906357827
C   159   6   -30.64517889684041     0.00000000000000   -35.58242853186240
H   160   1   -29.33886395366497     0.00000000000000   -33.99861141914383
C   161   6   -33.27910985204473     0.00000000000000   -34.85707511453320
H   162   1   -34.73437575591029     0.00000000000000   -36.30522445985295
C   163   6   -33.98530187494683     0.00000000000000   -32.40733661245837
H   164   1   -32.53003597108128     0.00000000000000   -30.95918726713862
C   165   6   -36.53545266498037     0.00000000000000   -31.42730559003825
H   166   1   -38.12565452335255     0.00000000000000   -32.72584069812478
C   167   6   -36.99812781774169     0.00000000000000   -28.92014432582413
H   168   1   -35.40792595936951     0.00000000000000   -27.62160921773759
C   169   6   -39.43993909644225     0.00000000000000   -27.69487393279839
H   170   1   -41.14976239613217     0.00000000000000   -28.83128920070935
C   171   6   -39.65464156441772     0.00000000000000   -25.15443523997314
H   172   1   -37.94481826472781     0.00000000000000   -24.01801997206218
C   173   6   -41.96459735434156     0.00000000000000   -23.69572550002763
H   174   1   -43.77757556228871     0.00000000000000   -24.65907662750525
C   175   6   -41.92925943539628     0.00000000000000   -21.14647519194820
H   176   1   -40.11628122744913     0.00000000000000   -20.18312406447058
C   177   6   -44.08511359953615     0.00000000000000   -19.46837427729042
H   178   1   -45.98378674452329     0.00000000000000   -20.24938366635579
C   179   6   -43.80007561714723     0.00000000000000   -16.93486302798559
H   180   1   -41.90140247216009     0.00000000000000   -16.15385363892021
C   181   6   -45.78106610139272     0.00000000000000   -15.05353196776691
H   182   1   -47.74714892311332     0.00000000000000   -15.64467807106018
C   183   6   -45.24907312714818     0.00000000000000   -12.56015887552562
H   184   1   -43.28299030542758     0.00000000000000   -11.96901277223235
C   185   6   -47.03612191021643     0.00000000000000   -10.49371591629621
H   186   1   -49.05067995632712     0.00000000000000   -10.88930567368933
C   187   6   -46.26229732727518     0.00000000000000    -8.06449352701311
H   188   1   -44.24773928116449     0.00000000000000    -7.66890376961999
C   189   6   -47.83819415248502     0.00000000000000    -5.83283964410289
H   190   1   -49.88182612773230     0.00000000000000    -6.02906330998081
C   191   6   -46.82999031459634     0.00000000000000    -3.49116269733483
H   192   1   -44.78635833934906     0.00000000000000    -3.29493903145691
C   193   6   -48.17955843404815     0.00000000000000    -1.11578993758242
H   194   1   -50.23258304534751     0.00000000000000    -1.11075777077596
C   195   6   -46.94668489531117     0.00000000000000     1.11578993758240
H   196   1   -44.89366028401182     0.00000000000000     1.11075777077595
C   197   6   -48.05692723026567     0.00000000000000     3.61200543598980
H   198   1   -50.09957272831289     0.00000000000000     3.81824497296342
C   199   6   -46.61125723681569     0.00000000000000     5.71199690544789
H   200   1   -44.56861173876847     0.00000000000000     5.50575736847427
C   201   6   -47.47148154666705     0.00000000000000     8.30501522269046
H   202   1   -49.48407613869232     0.00000000000000     8.71047593034819
C   203   6   -45.82693769082456     0.00000000000000    10.25319422061883
H   204   1   -43.81434309879930     0.00000000000000     9.84773351296110
C   205   6   -46.42885954522250     0.00000000000000    12.91804317281343
H   206   1   -48.39202084510850     0.00000000000000    13.51882024289316
C   207   6   -44.60127968331842     0.00000000000000    14.69564767047907
H   208   1   -42.63811838343242     0.00000000000000    14.09487060039933
C   209   6   -44.93910224576109     0.00000000000000    17.40666330546153
H   210   1   -46.83392393701678     0.00000000000000    18.19697092636024
C   211   6   -42.94608697092231     0.00000000000000    18.99657399981444
H   212   1   -41.05126527966662     0.00000000000000    18.20626637891573
C   213   6   -43.01655682546082     0.00000000000000    21.72764775502791
H   214   1   -44.82479073938452     0.00000000000000    22.69987483233026
C   215   6   -40.87729996427702     0.00000000000000    23.11455293694789
H   216   1   -39.06906605035334     0.00000000000000    22.14232585964555
C   217   6   -40.67973844768944     0.00000000000000    25.83938307917292
H   218   1   -42.38397030320885     0.00000000000000    26.98416653465110
C   219   6   -38.41484221317057     0.00000000000000    27.00992609359858
H   220   1   -36.71061035765116     0.00000000000000    25.86514263812041
C   221   6   -37.95115195085968     0.00000000000000    29.70227101902191
H   222   1   -39.53496906357825     0.00000000000000    31.00858596219736
C   223   6   -35.58242853186239     0.00000000000000    30.64517889684043
H   224   1   -33.99861141914382     0.00000000000000    29.33886395366498
C   225   6   -34.85707511453320     0.00000000000000    33.27910985204472
H   226   1   -36.30522445985295     0.00000000000000    34.73437575591028
C   227   6   -32.40733661245837     0.00000000000000    33.98530187494683
H   228   1   -30.95918726713862     0.00000000000000    32.53003597108127
C   229   6   -31.42730559003825     0.00000000000000    36.53545266498037
H   230   1   -32.72584069812478     0.00000000000000    38.12565452335255
C   231   6   -28.92014432582413     0.00000000000000    36.99812781774169
H   232   1   -27.62160921773759     0.00000000000000    35.40792595936951
C   233   6   -27.69487393279839     0.00000000000000    39.43993909644225
H   234   1   -28.83128920070935     0.00000000000000    41.14976239613217
C   235   6   -25.15443523997314     0.00000000000000    39.65464156441772
H   236   1   -24.01801997206218     0.00000000000000    37.94481826472781
C   237   6   -23.69572550002763     0.00000000000000    41.96459735434156
H   238   1   -24.65907662750525     0.00000000000000    43.77757556228870
C   239   6   -21.14647519194820     0.00000000000000    41.92925943539628
H   240   1   -20.18312406447058     0.00000000000000    40.11628122744914
C   241   6   -19.46837427729042     0.00000000000000    44.08511359953615
H   242   1   -20.24938366635580     0.00000000000000    45.98378674452329
C   243   6   -16.93486302798559     0.00000000000000    43.80007561714723
H   244   1   -16.15385363892021     0.00000000000000    41.90140247216009
C   245   6   -15.05353196776692     0.00000000000000    45.78106610139272
H   246   1   -15.64467807106019     0.00000000000000    47.74714892311332
C   247   6   -12.56015887552562     0.00000000000000    45.24907312714818
H   248   1   -11.96901277223235     0.00000000000000    43.28299030542758
C   249   6   -10.49371591629621     0.00000000000000    47.03612191021643
H   250   1   -10.88930567368933     0.00000000000000    49.05067995632712
C   251   6    -8.06449352701312     0.00000000000000    46.26229732727518
H   252   1    -7.66890376961999     0.00000000000000    44.24773928116449
C   253   6    -5.83283964410290     0.00000000000000    47.83819415248502
H   254   1    -6.02906330998082     0.00000000000000    49.88182612773230
C   255   6    -3.49116269733484     0.00000000000000    46.82999031459634
H   256   1    -3.29493903145692     0.00000000000000    44.78635833934906
[GTO]
1 0
 s    3 1.00
               172.256   0.061766907377115
               25.9109    0.35879404285247
               5.53335    0.70071308368949
 s    2 1.00
               3.66498   -0.39589516211925
              0.770545     1.2158343556811
 s    1 1.00
              0.195857                   1
 p    2 1.00
               3.66498    0.23645994661946
              0.770545    0.86061880571636
 p    1 1.00
              0.195857                   1

2 0
 s    2 1.00
              5.447178     0.1562849806701
              0.824547    0.90469088810453
 s    1 1.00
              0.183192                   1

3 0
 s    3 1.00
               172.256   0.061766907377115
               25.9109    0.35879404285247
               5.53335    0.70071308368949
 s    2 1.00
               3.66498   -0.39589516211925
              0.770545     1.2158343556811
 s    1 1.00
              0.195857                   1
 p    2 1.00
               3.66498    0.23645994661946
              0.770545    0.86061880571636
 p    1 1.00
              0.195857                   1

4 0
 s    2 1.00
              5.447178     0.1562849806701
              0.824547    0.90469088810453
 s    1 1.00
              0.183192                   1

5 0
 s    3 1.00
               172.256   0.061766907377115
               25.9109    0.35879404285247
               5.53335    0.70071308368949
 s    2 1.00
               3.66498   -0.39589516211925
              0.770545     1.2158343556811
 s    1 1.00
              0.195857                   1
 p    2 1.00
               3.66498    0.23645994661946
              0.770545    0.86061880571636
 p    1 1.00
              0.195857                   1

6 0
 s    2 1.00
              5.447178     0.1562849806701
              0.824547    0.90469088810453
 s    1 1.00
              0.183192                   1

7 0
 s    3 1.00
               172.256   0.061766907377115
               25.9109    0.35879404285247
               5.53335    0.70071308368949
 s    2 1.00
               3.66498   -0.39589516211925
              0.770545     1.2158343556811
 s    1 1.00
              0.195857                   1
 p    2 1.00
               3.66498    0.23645994661946
              0.770545    0.86061880571636
 p    1 1.00
              0.195857                   1

8 0
 s    2 1.00
              5.447178     0.1562849806701
              0.824547    0.90469088810453
 s    1 1.00
              0.183192                   1

9 0
 s    3 1.00
               172.256   0.061766907377115
               25.9109    0.35879404285247
               5.53335    0.70071308368949
 s    2 1.00
               3.66498   -0.39589516211925
              0.770545     1.2158343556811
 s    1 1.00
              0.195857                   1
 p    2 1.00
               3.66498    0.23645994661946
              0.770545    0.86061880571636
 p    1 1.00
              0.195857                   1

10 0
 s    2 1.00
              5.447178     0.1562849806701
              0.824547    0.90469088810453
 s    1 1.00
              0.183192                   1

11 0
 s    3 1.00
               172.256   0.061766907377115
               25.9109    0.35879404285247
               5.53335    0.70071308368949
 s    2 1.00
               3.66498   -0.39589516211925
              0.770545     1.2158343556811
 s    1 1.00
              0.195857                   1
 p    2 1.00
               3.66498    0.23645994661946
              0.770545    0.86061880571636
 p    1 1.00
              0.195857                   1

12 0
 s    2 1.00
              5.447178     0.1562849806701
              0.824547    0.90469088810453
 s    1 1.00
              0.183192                   1

13 0
 s    3 1.00
               172.256   0.061766907377115
               25.9109    0.35879404285247
               5.53335    0.70071308368949
 s    2 1.00
               3.66498   -0.39589516211925
              0.770545     1.2158343556811
 s    1 1.00
              0.195857                   1
 p    2 1.00
               3.66498    0.23645994661946
              0.770545    0.86061880571636
 p    1 1.00
              0.195857                   1

14 0
 s    2 1.00
              5.447178     0.1562849806701
              0.824547    0.90469088810453
 s    1 1.00
              0.183192                   1

15 0
 s    3 1.00
               172.256   0.061766907377115
               25.9109    0.35879404285247
               5.53335    0.70071308368949
 s    2 1.00
               3.66498   -0.39589516211925
              0.770545     1.2158343556811
 s    1 1.00
              0.195857                   1
 p    2 1.00
               3.66498    0.23645994661946
              0.770545    0.86061880571636
 p    1 1.00
              0.195857                   1

16 0
 s    2 1.00
              5.447178     0.1562849806701
              0.824547    0.90469088810453
 s    1 1.00
              0.183192                   1

17 0
 s    3 1.00
               172.256   0.061766907377115
               25.9109    0.35879404285247
               5.53335    0.70071308368949
 s    2 1.00
               3.66498   -0.39589516211925
              0.770545     1.2158343556811
 s    1 1.00
              0.195857                   1
 p    2 1.00
               3.66498    0.23645994661946
              0.770545    0.86061880571636
 p    1 1.00
              0.195857                   1

18 0
 s    2 1.00
              5.447178     0.1562849806701
              0.824547    0.90469088810453
 s    1 1.00
              0.183192                   1

19 0
 s    3 1.00
               172.256   0.061766907377115
               25.9109    0.35879404285247
               5.53335    0.70071308368949
 s    2 1.00
               3.66498   -0.39589516211925
              0.770545     1.2158343556811
 s    1 1.00
              0.195857                   1
 p    2 1.00
               3.66498    0.23645994661946
              0.770545    0.86061880571636
 p    1 1.00
              0.195857                   1

20 0
 s    2 1.00
              5.447178     0.1562849806701
              0.824547    0.90469088810453
 s    1 1.00
              0.183192                   1

21 0
 s    3 1.00
               172.256   0.061766907377115
               25.9109    0.35879404285247
               5.53335    0.70071308368949
 s    2 1.00
               3.66498   -0.39589516211925
              0.770545     1.2158343556811
 s    1 1.00
              0.195857                   1
 p    2 1.00
               3.66498    0.23645994661946
              0.770545    0.86061880571636
 p    1 1.00
              0.195857                   1

22 0
 s    2 1.00
              5.447178     0.1562849806701
              0.824547    0.90469088810453
 s    1 1.00
              0.183192                   1

23 0
 s    3 1.00
               172.256   0.061766907377115
               25.9109    0.35879404285247
               5.53335    0.70071308368949
 s    2 1.00
               3.66498   -0.39589516211925
              0.770545     1.2158343556811
 s    1 1.00
              0.195857                   1
 p    2 1.00
               3.66498    0.23645994661946
              0.770545    0.86061880571636
 p    1 1.00
              0.195857                   1

24 0
 s    2 1.00
              5.447178     0.1562849806701
              0.824547    0.90469088810453
 s    1 1.00
              0.183192                   1

25 0
 s    3 1.00
               172.256   0.061766907377115
               25.9109    0.35879404285247
               5.53335    0.70071308368949
 s    2 1.00
               3.66498   -0.39589516211925
              0.770545     1.2158343556811
 s    1 1.00
              0.195857                   1
 p    2 1.00
               3.66498    0.23645994661946
              0.770545    0.86061880571636
 p    1 1.00
              0.195857                   1

26 0
 s    2 1.00
              5.447178     0.1562849806701
              0.824547    0.90469088810453
 s    1 1.00
              0.183192                   1

27 0
 s    3 1.00
               172.256   0.061766907377115
               25.9109    0.35879404285247
               5.53335    0.70071308368949
 s    2 1.00
               3.66498   -0.39589516211925
              0.770545     1.2158343556811
 s    1 1.00
              0.195857                   1
 p    2 1.00
               3.66498    0.23645994661946
              0.770545    0.86061880571636
 p    1 1.00
              0.195857                   1

28 0
 s    2 1.00
              5.447178     0.1562849806701
              0.824547    0.90469088810453
 s    1 1.00
              0.183192                   1

29 0
 s    3 1.00
               172.256   0.061766907377115
               25.9109    0.35879404285247
               5.53335    0.70071308368949
 s    2 1.00
               3.66498   -0.39589516211925
              0.770545     1.2158343556811
 s    1 1.00
              0.195857                   1
 p    2 1.00
               3.66498    0.23645994661946
              0.770545    0.86061880571636
 p    1 1.00
              0.195857                   1

30 0
 s    2 1.00
              5.447178     0.1562849806701
              0.824547    0.90469088810453
 s    1 1.00
              0.183192                   1

31 0
 s    3 1.00
               172.256   0.061766907377115
               25.9109    0.35879404285247
               5.53335    0.70071308368949
 s    2 1.00
               3.66498   -0.39589516211925
              0.770545     1.2158343556811
 s    1 1.00
              0.195857                   1
 p    2 1.00
               3.66498    0.23645994661946
              0.770545    0.86061880571636
 p    1 1.00
              0.195857                   1

32 0
 s    2 1.00
              5.447178     0.1562849806701
              0.824547    0.90469088810453
 s    1 1.00
              0.183192                   1

33 0
 s    3 1.00
               172.256   0.061766907377115
               25.9109    0.35879404285247
               5.53335    0.70071308368949
 s    2 1.00
               3.66498   -0.39589516211925
              0.770545     1.2158343556811
 s    1 1.00
              0.195857                   1
 p    2 1.00
               3.66498    0.23645994661946
              0.770545    0.86061880571636
 p    1 1.00
              0.195857                   1

34 0
 s    2 1.00
              5.447178     0.1562849806701
              0.824547    0.90469088810453
 s    1 1.00
              0.183192                   1

35 0
 s    3 1.00
               172.256   0.061766907377115
               25.9109    0.35879404285247
               5.53335    0.70071308368949
 s    2 1.00
               3.66498   -0.39589516211925
              0.770545     1.2158343556811
 s    1 1.00
              0.195857                   1
 p    2 1.00