System: uname_result(system='Linux', node='ctc-101', release='5.15.0-89-generic', version='#99-Ubuntu SMP Mon Oct 30 20:42:41 UTC 2023', machine='x86_64')  Threads 24
Python 3.10.12 (main, Nov 20 2023, 15:14:05) [GCC 11.4.0]
numpy 1.23.5  scipy 1.10.1
Date: Thu Jul 18 11:26:41 2024
PySCF version 2.4.0
PySCF path  /home/king1305/Apps/pyscf
GIT ORIG_HEAD 44f0eabfeaf8c627518e3ba404cd61ab845c26f1
GIT HEAD (branch minao4s) 5953038670e86da2b926b534ed55e547220da604

[ENV] PYSCF_MAX_MEMORY 60000
[ENV] PYSCF_EXT_PATH /home/king1305/Apps/pyscf_ext/pyscf-forge:/home/king1305/Apps/pyscf_ext/dmrgscf:
[CONFIG] conf_file None
[INPUT] verbose = 4
[INPUT] num. atoms = 16
[INPUT] num. electrons = 16
[INPUT] charge = 0
[INPUT] spin (= nelec alpha-beta = 2S) = 0
[INPUT] symmetry False subgroup None
[INPUT] Mole.unit = angstrom
[INPUT] Symbol           X                Y                Z      unit          X                Y                Z       unit  Magmom
[INPUT]  1 H      0.000000000000   0.000000000000   3.588081626838 AA    0.000000000000   0.000000000000   6.780491587308 Bohr   0.0
[INPUT]  2 H      1.373099392565   0.000000000000   3.314955176016 AA    2.594781793754   0.000000000000   6.264357397879 Bohr   0.0
[INPUT]  3 H      2.537156849788   0.000000000000   2.537156849788 AA    4.794531581164   0.000000000000   4.794531581164 Bohr   0.0
[INPUT]  4 H      3.314955176016   0.000000000000   1.373099392565 AA    6.264357397879   0.000000000000   2.594781793754 Bohr   0.0
[INPUT]  5 H      3.588081626838   0.000000000000   0.000000000000 AA    6.780491587308   0.000000000000   0.000000000000 Bohr   0.0
[INPUT]  6 H      3.314955176016   0.000000000000  -1.373099392565 AA    6.264357397879   0.000000000000  -2.594781793754 Bohr   0.0
[INPUT]  7 H      2.537156849788   0.000000000000  -2.537156849788 AA    4.794531581164   0.000000000000  -4.794531581164 Bohr   0.0
[INPUT]  8 H      1.373099392565   0.000000000000  -3.314955176016 AA    2.594781793754   0.000000000000  -6.264357397879 Bohr   0.0
[INPUT]  9 H      0.000000000000   0.000000000000  -3.588081626838 AA    0.000000000000   0.000000000000  -6.780491587308 Bohr   0.0
[INPUT] 10 H     -1.373099392565   0.000000000000  -3.314955176016 AA   -2.594781793754   0.000000000000  -6.264357397879 Bohr   0.0
[INPUT] 11 H     -2.537156849788   0.000000000000  -2.537156849788 AA   -4.794531581164   0.000000000000  -4.794531581164 Bohr   0.0
[INPUT] 12 H     -3.314955176016   0.000000000000  -1.373099392565 AA   -6.264357397879   0.000000000000  -2.594781793754 Bohr   0.0
[INPUT] 13 H     -3.588081626838   0.000000000000  -0.000000000000 AA   -6.780491587308   0.000000000000  -0.000000000000 Bohr   0.0
[INPUT] 14 H     -3.314955176016   0.000000000000   1.373099392565 AA   -6.264357397879   0.000000000000   2.594781793754 Bohr   0.0
[INPUT] 15 H     -2.537156849788   0.000000000000   2.537156849788 AA   -4.794531581164   0.000000000000   4.794531581164 Bohr   0.0
[INPUT] 16 H     -1.373099392565   0.000000000000   3.314955176016 AA   -2.594781793754   0.000000000000   6.264357397879 Bohr   0.0

nuclear repulsion = 17.4120661031445
number of shells = 16
number of NR pGTOs = 48
number of NR cGTOs = 16
basis = sto-3g
ecp = {}
CPU time:         4.76


******** <class 'pyscf.scf.rohf.ROHF'> ********
method = ROHF
initial guess = minao
damping factor = 0
level_shift factor = 0
DIIS = <class 'pyscf.scf.diis.CDIIS'>
diis_start_cycle = 1
diis_space = 8
SCF conv_tol = 1e-09
SCF conv_tol_grad = None
SCF max_cycles = 50
direct_scf = True
direct_scf_tol = 1e-13
chkfile to save SCF result = /tmp/tmpf8ro2349
max_memory 60000 MB (current use 189 MB)
num. doubly occ = 8  num. singly occ = 0
Set gradient conv threshold to 3.16228e-05
init E= -5.36325224731363

WARN: HOMO -0.0888205105374337 >= LUMO -0.0888205105374333

cycle= 1 E= -7.56857890846329  delta_E= -2.21  |g|= 0.101  |ddm|= 2.04
  HOMO = -0.167483991799078  LUMO = -0.0142775789576921
cycle= 2 E= -7.58488856481565  delta_E= -0.0163  |g|= 0.0567  |ddm|= 0.235
  HOMO = -0.190597417607062  LUMO = 0.00904281956538991
cycle= 3 E= -7.59348266938191  delta_E= -0.00859  |g|= 0.016  |ddm|= 0.288
  HOMO = -0.191611891685723  LUMO = 0.0105034871653269
cycle= 4 E= -7.5947762560219  delta_E= -0.00129  |g|= 0.00528  |ddm|= 0.137
  HOMO = -0.193748000018648  LUMO = 0.0124121323074606
cycle= 5 E= -7.5949522534188  delta_E= -0.000176  |g|= 0.00123  |ddm|= 0.0781
  HOMO = -0.192457487890386  LUMO = 0.0111830425861283
cycle= 6 E= -7.59495433229898  delta_E= -2.08e-06  |g|= 0.000457  |ddm|= 0.00975
  HOMO = -0.192833939434599  LUMO = 0.0115504164998587
cycle= 7 E= -7.59495512823971  delta_E= -7.96e-07  |g|= 6.38e-05  |ddm|= 0.00498
  HOMO = -0.192780135173929  LUMO = 0.0114962216861104
cycle= 8 E= -7.59495513969269  delta_E= -1.15e-08  |g|= 1.31e-06  |ddm|= 0.000487
  HOMO = -0.192781027739695  LUMO = 0.0114971284998376
cycle= 9 E= -7.59495513969896  delta_E= -6.27e-12  |g|= 5.62e-08  |ddm|= 1.23e-05
  HOMO = -0.192781070098038  LUMO = 0.0114971694915989
Extra cycle  E= -7.59495513969897  delta_E= -3.55e-15  |g|= 2.76e-08  |ddm|= 1.16e-07
converged SCF energy = -7.59495513969897
Entering product-state fixed-point CI iteration
Cycle 0: max grad = 2.312018e-01 ; sigma = 0.000000e+00 ; 0/8 fragment CI solvers converged
Cycle 1: max grad = 2.283106e-04 ; sigma = 1.065814e-14 ; 8/8 fragment CI solvers converged
Cycle 2: max grad = 4.286509e-07 ; sigma = 7.105427e-15 ; 8/8 fragment CI solvers converged
Product_state fixed-point CI iteration converged after 2 cycles
Entering product-state fixed-point CI iteration
Cycle 0: max grad = 2.312027e-01 ; sigma = 0.000000e+00 ; 0/8 fragment CI solvers converged
Cycle 1: max grad = 3.927455e-03 ; sigma = 7.918301e-02 ; 8/8 fragment CI solvers converged
Cycle 2: max grad = 2.816025e-04 ; sigma = 2.494493e-05 ; 8/8 fragment CI solvers converged
Cycle 3: max grad = 4.247672e-05 ; sigma = 1.408671e-07 ; 8/8 fragment CI solvers converged
Cycle 4: max grad = 3.103097e-06 ; sigma = 2.930772e-09 ; 8/8 fragment CI solvers converged
Cycle 5: max grad = 4.659165e-07 ; sigma = 1.672262e-11 ; 8/8 fragment CI solvers converged
Product_state fixed-point CI iteration converged after 5 cycles
Entering product-state fixed-point CI iteration
Cycle 0: max grad = 2.312027e-01 ; sigma = 0.000000e+00 ; 0/8 fragment CI solvers converged
Cycle 1: max grad = 3.927455e-03 ; sigma = 7.918301e-02 ; 8/8 fragment CI solvers converged
Cycle 2: max grad = 2.816025e-04 ; sigma = 2.494493e-05 ; 8/8 fragment CI solvers converged
Cycle 3: max grad = 4.247672e-05 ; sigma = 1.408671e-07 ; 8/8 fragment CI solvers converged
Cycle 4: max grad = 3.103097e-06 ; sigma = 2.930776e-09 ; 8/8 fragment CI solvers converged
Cycle 5: max grad = 4.659165e-07 ; sigma = 1.671907e-11 ; 8/8 fragment CI solvers converged
Product_state fixed-point CI iteration converged after 5 cycles
Entering product-state fixed-point CI iteration
Cycle 0: max grad = 2.312027e-01 ; sigma = 0.000000e+00 ; 0/8 fragment CI solvers converged
Cycle 1: max grad = 3.927455e-03 ; sigma = 7.918301e-02 ; 8/8 fragment CI solvers converged
Cycle 2: max grad = 2.816025e-04 ; sigma = 2.494493e-05 ; 8/8 fragment CI solvers converged
Cycle 3: max grad = 4.247672e-05 ; sigma = 1.408671e-07 ; 8/8 fragment CI solvers converged
Cycle 4: max grad = 3.103097e-06 ; sigma = 2.930776e-09 ; 8/8 fragment CI solvers converged
Cycle 5: max grad = 4.659165e-07 ; sigma = 1.672262e-11 ; 8/8 fragment CI solvers converged
Product_state fixed-point CI iteration converged after 5 cycles
Entering product-state fixed-point CI iteration
Cycle 0: max grad = 2.312027e-01 ; sigma = 0.000000e+00 ; 0/8 fragment CI solvers converged
Cycle 1: max grad = 3.927455e-03 ; sigma = 7.918301e-02 ; 8/8 fragment CI solvers converged
Cycle 2: max grad = 2.816025e-04 ; sigma = 2.494493e-05 ; 8/8 fragment CI solvers converged
Cycle 3: max grad = 4.247672e-05 ; sigma = 1.408671e-07 ; 8/8 fragment CI solvers converged
Cycle 4: max grad = 3.103097e-06 ; sigma = 2.930772e-09 ; 8/8 fragment CI solvers converged
Cycle 5: max grad = 4.659165e-07 ; sigma = 1.672262e-11 ; 8/8 fragment CI solvers converged
Product_state fixed-point CI iteration converged after 5 cycles
Entering product-state fixed-point CI iteration
Cycle 0: max grad = 2.312027e-01 ; sigma = 0.000000e+00 ; 0/8 fragment CI solvers converged
Cycle 1: max grad = 3.927455e-03 ; sigma = 7.918301e-02 ; 8/8 fragment CI solvers converged
Cycle 2: max grad = 2.816025e-04 ; sigma = 2.494493e-05 ; 8/8 fragment CI solvers converged
Cycle 3: max grad = 4.247672e-05 ; sigma = 1.408671e-07 ; 8/8 fragment CI solvers converged
Cycle 4: max grad = 3.103097e-06 ; sigma = 2.930765e-09 ; 8/8 fragment CI solvers converged
Cycle 5: max grad = 4.659165e-07 ; sigma = 1.672262e-11 ; 8/8 fragment CI solvers converged
Product_state fixed-point CI iteration converged after 5 cycles
Entering product-state fixed-point CI iteration
Cycle 0: max grad = 2.312027e-01 ; sigma = 0.000000e+00 ; 0/8 fragment CI solvers converged
Cycle 1: max grad = 3.927455e-03 ; sigma = 7.918301e-02 ; 8/8 fragment CI solvers converged
Cycle 2: max grad = 2.816025e-04 ; sigma = 2.494493e-05 ; 8/8 fragment CI solvers converged
Cycle 3: max grad = 4.247672e-05 ; sigma = 1.408671e-07 ; 8/8 fragment CI solvers converged
Cycle 4: max grad = 3.103097e-06 ; sigma = 2.930769e-09 ; 8/8 fragment CI solvers converged
Cycle 5: max grad = 4.659165e-07 ; sigma = 1.672973e-11 ; 8/8 fragment CI solvers converged
Product_state fixed-point CI iteration converged after 5 cycles
Entering product-state fixed-point CI iteration
Cycle 0: max grad = 2.312027e-01 ; sigma = 0.000000e+00 ; 0/8 fragment CI solvers converged
Cycle 1: max grad = 3.927455e-03 ; sigma = 7.918301e-02 ; 8/8 fragment CI solvers converged
Cycle 2: max grad = 2.816025e-04 ; sigma = 2.494493e-05 ; 8/8 fragment CI solvers converged
Cycle 3: max grad = 4.247672e-05 ; sigma = 1.408671e-07 ; 8/8 fragment CI solvers converged
Cycle 4: max grad = 3.103097e-06 ; sigma = 2.930769e-09 ; 8/8 fragment CI solvers converged
Cycle 5: max grad = 4.659165e-07 ; sigma = 1.672262e-11 ; 8/8 fragment CI solvers converged
Product_state fixed-point CI iteration converged after 5 cycles
Entering product-state fixed-point CI iteration
Cycle 0: max grad = 2.312027e-01 ; sigma = 0.000000e+00 ; 0/8 fragment CI solvers converged
Cycle 1: max grad = 3.927455e-03 ; sigma = 7.918301e-02 ; 8/8 fragment CI solvers converged
Cycle 2: max grad = 2.816025e-04 ; sigma = 2.494493e-05 ; 8/8 fragment CI solvers converged
Cycle 3: max grad = 4.247672e-05 ; sigma = 1.408671e-07 ; 8/8 fragment CI solvers converged
Cycle 4: max grad = 3.103097e-06 ; sigma = 2.930776e-09 ; 8/8 fragment CI solvers converged
Cycle 5: max grad = 4.659165e-07 ; sigma = 1.671907e-11 ; 8/8 fragment CI solvers converged
Product_state fixed-point CI iteration converged after 5 cycles
Entering product-state fixed-point CI iteration
Cycle 0: max grad = 2.312025e-01 ; sigma = 0.000000e+00 ; 0/8 fragment CI solvers converged
Cycle 1: max grad = 4.181266e-03 ; sigma = 7.743021e-02 ; 8/8 fragment CI solvers converged
Cycle 2: max grad = 3.310344e-04 ; sigma = 2.936143e-05 ; 8/8 fragment CI solvers converged
Cycle 3: max grad = 4.609344e-05 ; sigma = 1.812159e-07 ; 8/8 fragment CI solvers converged
Cycle 4: max grad = 3.460256e-06 ; sigma = 3.450232e-09 ; 8/8 fragment CI solvers converged
Cycle 5: max grad = 5.061757e-07 ; sigma = 1.979217e-11 ; 8/8 fragment CI solvers converged
Product_state fixed-point CI iteration converged after 5 cycles
Entering product-state fixed-point CI iteration
Cycle 0: max grad = 2.312025e-01 ; sigma = 0.000000e+00 ; 0/8 fragment CI solvers converged
Cycle 1: max grad = 4.181266e-03 ; sigma = 7.743021e-02 ; 8/8 fragment CI solvers converged
Cycle 2: max grad = 3.310344e-04 ; sigma = 2.936143e-05 ; 8/8 fragment CI solvers converged
Cycle 3: max grad = 4.609344e-05 ; sigma = 1.812159e-07 ; 8/8 fragment CI solvers converged
Cycle 4: max grad = 3.460256e-06 ; sigma = 3.450232e-09 ; 8/8 fragment CI solvers converged
Cycle 5: max grad = 5.061757e-07 ; sigma = 1.978506e-11 ; 8/8 fragment CI solvers converged
Product_state fixed-point CI iteration converged after 5 cycles
Entering product-state fixed-point CI iteration
Cycle 0: max grad = 2.312025e-01 ; sigma = 0.000000e+00 ; 0/8 fragment CI solvers converged
Cycle 1: max grad = 4.181266e-03 ; sigma = 7.743021e-02 ; 8/8 fragment CI solvers converged
Cycle 2: max grad = 3.310344e-04 ; sigma = 2.936143e-05 ; 8/8 fragment CI solvers converged
Cycle 3: max grad = 4.609344e-05 ; sigma = 1.812159e-07 ; 8/8 fragment CI solvers converged
Cycle 4: max grad = 3.460256e-06 ; sigma = 3.450232e-09 ; 8/8 fragment CI solvers converged
Cycle 5: max grad = 5.061757e-07 ; sigma = 1.978151e-11 ; 8/8 fragment CI solvers converged
Product_state fixed-point CI iteration converged after 5 cycles
Entering product-state fixed-point CI iteration
Cycle 0: max grad = 2.312025e-01 ; sigma = 0.000000e+00 ; 0/8 fragment CI solvers converged
Cycle 1: max grad = 4.181266e-03 ; sigma = 7.743021e-02 ; 8/8 fragment CI solvers converged
Cycle 2: max grad = 3.310344e-04 ; sigma = 2.936143e-05 ; 8/8 fragment CI solvers converged
Cycle 3: max grad = 4.609344e-05 ; sigma = 1.812159e-07 ; 8/8 fragment CI solvers converged
Cycle 4: max grad = 3.460256e-06 ; sigma = 3.450229e-09 ; 8/8 fragment CI solvers converged
Cycle 5: max grad = 5.061757e-07 ; sigma = 1.978506e-11 ; 8/8 fragment CI solvers converged
Product_state fixed-point CI iteration converged after 5 cycles
Entering product-state fixed-point CI iteration
Cycle 0: max grad = 2.312025e-01 ; sigma = 0.000000e+00 ; 0/8 fragment CI solvers converged
Cycle 1: max grad = 4.181266e-03 ; sigma = 7.743021e-02 ; 8/8 fragment CI solvers converged
Cycle 2: max grad = 3.310344e-04 ; sigma = 2.936143e-05 ; 8/8 fragment CI solvers converged
Cycle 3: max grad = 4.609344e-05 ; sigma = 1.812159e-07 ; 8/8 fragment CI solvers converged
Cycle 4: max grad = 3.460256e-06 ; sigma = 3.450236e-09 ; 8/8 fragment CI solvers converged
Cycle 5: max grad = 5.061757e-07 ; sigma = 1.978506e-11 ; 8/8 fragment CI solvers converged
Product_state fixed-point CI iteration converged after 5 cycles
Entering product-state fixed-point CI iteration
Cycle 0: max grad = 2.312025e-01 ; sigma = 0.000000e+00 ; 0/8 fragment CI solvers converged
Cycle 1: max grad = 4.181266e-03 ; sigma = 7.743021e-02 ; 8/8 fragment CI solvers converged
Cycle 2: max grad = 3.310344e-04 ; sigma = 2.936143e-05 ; 8/8 fragment CI solvers converged
Cycle 3: max grad = 4.609344e-05 ; sigma = 1.812159e-07 ; 8/8 fragment CI solvers converged
Cycle 4: max grad = 3.460256e-06 ; sigma = 3.450236e-09 ; 8/8 fragment CI solvers converged
Cycle 5: max grad = 5.061757e-07 ; sigma = 1.979217e-11 ; 8/8 fragment CI solvers converged
Product_state fixed-point CI iteration converged after 5 cycles
Entering product-state fixed-point CI iteration
Cycle 0: max grad = 2.312025e-01 ; sigma = 0.000000e+00 ; 0/8 fragment CI solvers converged
Cycle 1: max grad = 4.181266e-03 ; sigma = 7.743021e-02 ; 8/8 fragment CI solvers converged
Cycle 2: max grad = 3.310344e-04 ; sigma = 2.936143e-05 ; 8/8 fragment CI solvers converged
Cycle 3: max grad = 4.609344e-05 ; sigma = 1.812159e-07 ; 8/8 fragment CI solvers converged
Cycle 4: max grad = 3.460256e-06 ; sigma = 3.450229e-09 ; 8/8 fragment CI solvers converged
Cycle 5: max grad = 5.061757e-07 ; sigma = 1.979927e-11 ; 8/8 fragment CI solvers converged
Product_state fixed-point CI iteration converged after 5 cycles
Entering product-state fixed-point CI iteration
Cycle 0: max grad = 2.312025e-01 ; sigma = 0.000000e+00 ; 0/8 fragment CI solvers converged
Cycle 1: max grad = 4.181266e-03 ; sigma = 7.743021e-02 ; 8/8 fragment CI solvers converged
Cycle 2: max grad = 3.310344e-04 ; sigma = 2.936143e-05 ; 8/8 fragment CI solvers converged
Cycle 3: max grad = 4.609344e-05 ; sigma = 1.812159e-07 ; 8/8 fragment CI solvers converged
Cycle 4: max grad = 3.460256e-06 ; sigma = 3.450229e-09 ; 8/8 fragment CI solvers converged
Cycle 5: max grad = 5.061757e-07 ; sigma = 1.979927e-11 ; 8/8 fragment CI solvers converged
Product_state fixed-point CI iteration converged after 5 cycles
LASCI state-average energy = -7.31655994169382
LASCI state 0 energy = -7.69347921227748
LASCI state 1 energy = -7.26356277731632
LASCI state 2 energy = -7.26356277731632
LASCI state 3 energy = -7.26356277731633
LASCI state 4 energy = -7.26356277731632
LASCI state 5 energy = -7.26356277731632
LASCI state 6 energy = -7.26356277731634
LASCI state 7 energy = -7.26356277731634
LASCI state 8 energy = -7.26356277731632
LASCI state 9 energy = -7.32244219724836
LASCI state 10 energy = -7.32244219724836
LASCI state 11 energy = -7.32244219724836
LASCI state 12 energy = -7.32244219724836
LASCI state 13 energy = -7.32244219724838
LASCI state 14 energy = -7.32244219724836
LASCI state 15 energy = -7.32244219724836
LASCI state 16 energy = -7.32244219724837
******** LAS space tables ********
LAS space 0: (8e+8e,16o) wfynsm=A
Converged? True
E(LAS) = -7.69347921227748
S^2 = 0.0000000 (Pure)
Space table
 frag    (ae+be,no)  2S+1   ir   lroots
    0    (1e+1e,2o)     1    A        1
    1    (1e+1e,2o)     1    A        1
    2    (1e+1e,2o)     1    A        1
    3    (1e+1e,2o)     1    A        1
    4    (1e+1e,2o)     1    A        1
    5    (1e+1e,2o)     1    A        1
    6    (1e+1e,2o)     1    A        1
    7    (1e+1e,2o)     1    A        1
LAS space 1: (8e+7e,16o) wfynsm=A
Converged? True
E(LAS) = -7.26356277731632
S^2 = 0.7500000 (Pure)
Space table
 frag    (ae+be,no)  2S+1   ir   lroots
    0    (1e+0e,2o)     2    A        1
    1    (1e+1e,2o)     1    A        1
    2    (1e+1e,2o)     1    A        1
    3    (1e+1e,2o)     1    A        1
    4    (1e+1e,2o)     1    A        1
    5    (1e+1e,2o)     1    A        1
    6    (1e+1e,2o)     1    A        1
    7    (1e+1e,2o)     1    A        1
LAS space 2: (8e+7e,16o) wfynsm=A
Converged? True
E(LAS) = -7.26356277731632
S^2 = 0.7500000 (Pure)
Space table
 frag    (ae+be,no)  2S+1   ir   lroots
    0    (1e+1e,2o)     1    A        1
    1    (1e+0e,2o)     2    A        1
    2    (1e+1e,2o)     1    A        1
    3    (1e+1e,2o)     1    A        1
    4    (1e+1e,2o)     1    A        1
    5    (1e+1e,2o)     1    A        1
    6    (1e+1e,2o)     1    A        1
    7    (1e+1e,2o)     1    A        1
LAS space 3: (8e+7e,16o) wfynsm=A
Converged? True
E(LAS) = -7.26356277731633
S^2 = 0.7500000 (Pure)
Space table
 frag    (ae+be,no)  2S+1   ir   lroots
    0    (1e+1e,2o)     1    A        1
    1    (1e+1e,2o)     1    A        1
    2    (1e+0e,2o)     2    A        1
    3    (1e+1e,2o)     1    A        1
    4    (1e+1e,2o)     1    A        1
    5    (1e+1e,2o)     1    A        1
    6    (1e+1e,2o)     1    A        1
    7    (1e+1e,2o)     1    A        1
LAS space 4: (8e+7e,16o) wfynsm=A
Converged? True
E(LAS) = -7.26356277731632
S^2 = 0.7500000 (Pure)
Space table
 frag    (ae+be,no)  2S+1   ir   lroots
    0    (1e+1e,2o)     1    A        1
    1    (1e+1e,2o)     1    A        1
    2    (1e+1e,2o)     1    A        1
    3    (1e+0e,2o)     2    A        1
    4    (1e+1e,2o)     1    A        1
    5    (1e+1e,2o)     1    A        1
    6    (1e+1e,2o)     1    A        1
    7    (1e+1e,2o)     1    A        1
LAS space 5: (8e+7e,16o) wfynsm=A
Converged? True
E(LAS) = -7.26356277731632
S^2 = 0.7500000 (Pure)
Space table
 frag    (ae+be,no)  2S+1   ir   lroots
    0    (1e+1e,2o)     1    A        1
    1    (1e+1e,2o)     1    A        1
    2    (1e+1e,2o)     1    A        1
    3    (1e+1e,2o)     1    A        1
    4    (1e+0e,2o)     2    A        1
    5    (1e+1e,2o)     1    A        1
    6    (1e+1e,2o)     1    A        1
    7    (1e+1e,2o)     1    A        1
LAS space 6: (8e+7e,16o) wfynsm=A
Converged? True
E(LAS) = -7.26356277731634
S^2 = 0.7500000 (Pure)
Space table
 frag    (ae+be,no)  2S+1   ir   lroots
    0    (1e+1e,2o)     1    A        1
    1    (1e+1e,2o)     1    A        1
    2    (1e+1e,2o)     1    A        1
    3    (1e+1e,2o)     1    A        1
    4    (1e+1e,2o)     1    A        1
    5    (1e+0e,2o)     2    A        1
    6    (1e+1e,2o)     1    A        1
    7    (1e+1e,2o)     1    A        1
LAS space 7: (8e+7e,16o) wfynsm=A
Converged? True
E(LAS) = -7.26356277731634
S^2 = 0.7500000 (Pure)
Space table
 frag    (ae+be,no)  2S+1   ir   lroots
    0    (1e+1e,2o)     1    A        1
    1    (1e+1e,2o)     1    A        1
    2    (1e+1e,2o)     1    A        1
    3    (1e+1e,2o)     1    A        1
    4    (1e+1e,2o)     1    A        1
    5    (1e+1e,2o)     1    A        1
    6    (1e+0e,2o)     2    A        1
    7    (1e+1e,2o)     1    A        1
LAS space 8: (8e+7e,16o) wfynsm=A
Converged? True
E(LAS) = -7.26356277731632
S^2 = 0.7500000 (Pure)
Space table
 frag    (ae+be,no)  2S+1   ir   lroots
    0    (1e+1e,2o)     1    A        1
    1    (1e+1e,2o)     1    A        1
    2    (1e+1e,2o)     1    A        1
    3    (1e+1e,2o)     1    A        1
    4    (1e+1e,2o)     1    A        1
    5    (1e+1e,2o)     1    A        1
    6    (1e+1e,2o)     1    A        1
    7    (1e+0e,2o)     2    A        1
LAS space 9: (9e+8e,16o) wfynsm=A
Converged? True
E(LAS) = -7.32244219724836
S^2 = 0.7500000 (Pure)
Space table
 frag    (ae+be,no)  2S+1   ir   lroots
    0    (2e+1e,2o)     2    A        1
    1    (1e+1e,2o)     1    A        1
    2    (1e+1e,2o)     1    A        1
    3    (1e+1e,2o)     1    A        1
    4    (1e+1e,2o)     1    A        1
    5    (1e+1e,2o)     1    A        1
    6    (1e+1e,2o)     1    A        1
    7    (1e+1e,2o)     1    A        1
LAS space 10: (9e+8e,16o) wfynsm=A
Converged? True
E(LAS) = -7.32244219724836
S^2 = 0.7500000 (Pure)
Space table
 frag    (ae+be,no)  2S+1   ir   lroots
    0    (1e+1e,2o)     1    A        1
    1    (2e+1e,2o)     2    A        1
    2    (1e+1e,2o)     1    A        1
    3    (1e+1e,2o)     1    A        1
    4    (1e+1e,2o)     1    A        1
    5    (1e+1e,2o)     1    A        1
    6    (1e+1e,2o)     1    A        1
    7    (1e+1e,2o)     1    A        1
LAS space 11: (9e+8e,16o) wfynsm=A
Converged? True
E(LAS) = -7.32244219724836
S^2 = 0.7500000 (Pure)
Space table
 frag    (ae+be,no)  2S+1   ir   lroots
    0    (1e+1e,2o)     1    A        1
    1    (1e+1e,2o)     1    A        1
    2    (2e+1e,2o)     2    A        1
    3    (1e+1e,2o)     1    A        1
    4    (1e+1e,2o)     1    A        1
    5    (1e+1e,2o)     1    A        1
    6    (1e+1e,2o)     1    A        1
    7    (1e+1e,2o)     1    A        1
LAS space 12: (9e+8e,16o) wfynsm=A
Converged? True
E(LAS) = -7.32244219724836
S^2 = 0.7500000 (Pure)
Space table
 frag    (ae+be,no)  2S+1   ir   lroots
    0    (1e+1e,2o)     1    A        1
    1    (1e+1e,2o)     1    A        1
    2    (1e+1e,2o)     1    A        1
    3    (2e+1e,2o)     2    A        1
    4    (1e+1e,2o)     1    A        1
    5    (1e+1e,2o)     1    A        1
    6    (1e+1e,2o)     1    A        1
    7    (1e+1e,2o)     1    A        1
LAS space 13: (9e+8e,16o) wfynsm=A
Converged? True
E(LAS) = -7.32244219724838
S^2 = 0.7500000 (Pure)
Space table
 frag    (ae+be,no)  2S+1   ir   lroots
    0    (1e+1e,2o)     1    A        1
    1    (1e+1e,2o)     1    A        1
    2    (1e+1e,2o)     1    A        1
    3    (1e+1e,2o)     1    A        1
    4    (2e+1e,2o)     2    A        1
    5    (1e+1e,2o)     1    A        1
    6    (1e+1e,2o)     1    A        1
    7    (1e+1e,2o)     1    A        1
LAS space 14: (9e+8e,16o) wfynsm=A
Converged? True
E(LAS) = -7.32244219724836
S^2 = 0.7500000 (Pure)
Space table
 frag    (ae+be,no)  2S+1   ir   lroots
    0    (1e+1e,2o)     1    A        1
    1    (1e+1e,2o)     1    A        1
    2    (1e+1e,2o)     1    A        1
    3    (1e+1e,2o)     1    A        1
    4    (1e+1e,2o)     1    A        1
    5    (2e+1e,2o)     2    A        1
    6    (1e+1e,2o)     1    A        1
    7    (1e+1e,2o)     1    A        1
LAS space 15: (9e+8e,16o) wfynsm=A
Converged? True
E(LAS) = -7.32244219724836
S^2 = 0.7500000 (Pure)
Space table
 frag    (ae+be,no)  2S+1   ir   lroots
    0    (1e+1e,2o)     1    A        1
    1    (1e+1e,2o)     1    A        1
    2    (1e+1e,2o)     1    A        1
    3    (1e+1e,2o)     1    A        1
    4    (1e+1e,2o)     1    A        1
    5    (1e+1e,2o)     1    A        1
    6    (2e+1e,2o)     2    A        1
    7    (1e+1e,2o)     1    A        1
LAS space 16: (9e+8e,16o) wfynsm=A
Converged? True
E(LAS) = -7.32244219724837
S^2 = 0.7500000 (Pure)
Space table
 frag    (ae+be,no)  2S+1   ir   lroots
    0    (1e+1e,2o)     1    A        1
    1    (1e+1e,2o)     1    A        1
    2    (1e+1e,2o)     1    A        1
    3    (1e+1e,2o)     1    A        1
    4    (1e+1e,2o)     1    A        1
    5    (1e+1e,2o)     1    A        1
    6    (1e+1e,2o)     1    A        1
    7    (2e+1e,2o)     2    A        1
LASSI op_o0 memory check: 3185.8907904000002 MB needed of 59791.292416 MB available (60000 MB max)
Symmetry analysis of 17 LAS rootspaces:
 ix            Energy  <S**2>  Neleca  Nelecb  Nelec   Wfnsym
  0     -7.6934792123   0.000       8       8      16       A
  1     -7.2635627773   0.750       8       7      15       A
  2     -7.2635627773   0.750       8       7      15       A
  3     -7.2635627773   0.750       8       7      15       A
  4     -7.2635627773   0.750       8       7      15       A
  5     -7.2635627773   0.750       8       7      15       A
  6     -7.2635627773   0.750       8       7      15       A
  7     -7.2635627773   0.750       8       7      15       A
  8     -7.2635627773   0.750       8       7      15       A
  9     -7.3224421972   0.750       9       8      17       A
 10     -7.3224421972   0.750       9       8      17       A
 11     -7.3224421972   0.750       9       8      17       A
 12     -7.3224421972   0.750       9       8      17       A
 13     -7.3224421972   0.750       9       8      17       A
 14     -7.3224421972   0.750       9       8      17       A
 15     -7.3224421972   0.750       9       8      17       A
 16     -7.3224421972   0.750       9       8      17       A
Build + diag H matrix LASSI symmetry block 0
['neleca', 'nelecb', 'irrep'] = (8, 7, 0)
(8 rootspaces; 8 states)
Build + diag H matrix LASSI symmetry block 1
['neleca', 'nelecb', 'irrep'] = (8, 8, 0)
(1 rootspaces; 1 states)
Build + diag H matrix LASSI symmetry block 2
['neleca', 'nelecb', 'irrep'] = (9, 8, 0)
(8 rootspaces; 8 states)
LASSI eigenvalues (17 total):
 ix            Energy  <S**2>  Neleca  Nelecb  Wfnsym
  0     -7.6934792123   0.000       8       8       A
  1     -7.5411793601   0.750       9       8       A
  2     -7.4812030990   0.750       9       8       A
  3     -7.4812030990   0.750       9       8       A
  4     -7.3823215287   0.750       8       7       A
  5     -7.3493979111   0.750       8       7       A
  6     -7.3493979111   0.750       8       7       A
  7     -7.3285919338   0.750       9       8       A
  8     -7.3285919338   0.750       9       8       A
  9     -7.2663578302   0.750       8       7       A
 10     -7.2663578302   0.750       8       7       A
 11     -7.1777332145   0.750       8       7       A
 12     -7.1777332145   0.750       8       7       A
 13     -7.1636934192   0.750       9       8       A
 14     -7.1636934192   0.750       9       8       A
 15     -7.1392027784   0.750       8       7       A
 16     -7.0913813141   0.750       9       8       A
