[Molden Format]
made by pyscf v[2.4.0]
[Atoms] (AU)
H   1   1     0.00000000000000     0.00000000000000    13.49568333403624
H   2   1     2.63287720746483     0.00000000000000    13.23636756300594
H   3   1     5.16457442038133     0.00000000000000    12.46838560956977
H   4   1     7.49779993464928     0.00000000000000    11.22125058950903
H   5   1     9.54288920224330     0.00000000000000     9.54288920224330
H   6   1    11.22125058950903     0.00000000000000     7.49779993464928
H   7   1    12.46838560956977     0.00000000000000     5.16457442038133
H   8   1    13.23636756300594     0.00000000000000     2.63287720746483
H   9   1    13.49568333403624     0.00000000000000     0.00000000000000
H   10   1    13.23636756300594     0.00000000000000    -2.63287720746483
H   11   1    12.46838560956977     0.00000000000000    -5.16457442038133
H   12   1    11.22125058950904     0.00000000000000    -7.49779993464927
H   13   1     9.54288920224330     0.00000000000000    -9.54288920224330
H   14   1     7.49779993464928     0.00000000000000   -11.22125058950904
H   15   1     5.16457442038133     0.00000000000000   -12.46838560956977
H   16   1     2.63287720746483     0.00000000000000   -13.23636756300594
H   17   1     0.00000000000000     0.00000000000000   -13.49568333403624
H   18   1    -2.63287720746483     0.00000000000000   -13.23636756300594
H   19   1    -5.16457442038133     0.00000000000000   -12.46838560956977
H   20   1    -7.49779993464927     0.00000000000000   -11.22125058950904
H   21   1    -9.54288920224330     0.00000000000000    -9.54288920224330
H   22   1   -11.22125058950903     0.00000000000000    -7.49779993464928
H   23   1   -12.46838560956976     0.00000000000000    -5.16457442038133
H   24   1   -13.23636756300594     0.00000000000000    -2.63287720746483
H   25   1   -13.49568333403624     0.00000000000000    -0.00000000000000
H   26   1   -13.23636756300594     0.00000000000000     2.63287720746483
H   27   1   -12.46838560956976     0.00000000000000     5.16457442038133
H   28   1   -11.22125058950904     0.00000000000000     7.49779993464927
H   29   1    -9.54288920224330     0.00000000000000     9.54288920224330
H   30   1    -7.49779993464928     0.00000000000000    11.22125058950903
H   31   1    -5.16457442038134     0.00000000000000    12.46838560956976
H   32   1    -2.63287720746483     0.00000000000000    13.23636756300594
[GTO]
1 0
 s    3 1.00
            3.42525091    0.15432897070298
            0.62391373    0.53532814243847
             0.1688554    0.44463454202535

2 0
 s    3 1.00
            3.42525091    0.15432897070298
            0.62391373    0.53532814243847
             0.1688554    0.44463454202535

3 0
 s    3 1.00
            3.42525091    0.15432897070298
            0.62391373    0.53532814243847
             0.1688554    0.44463454202535

4 0
 s    3 1.00
            3.42525091    0.15432897070298
            0.62391373    0.53532814243847
             0.1688554    0.44463454202535

5 0
 s    3 1.00
            3.42525091    0.15432897070298
            0.62391373    0.53532814243847
             0.1688554    0.44463454202535

6 0
 s    3 1.00
            3.42525091    0.15432897070298
            0.62391373    0.53532814243847
             0.1688554    0.44463454202535

7 0
 s    3 1.00
            3.42525091    0.15432897070298
            0.62391373    0.53532814243847
             0.1688554    0.44463454202535

8 0
 s    3 1.00
            3.42525091    0.15432897070298
            0.62391373    0.53532814243847
             0.1688554    0.44463454202535

9 0
 s    3 1.00
            3.42525091    0.15432897070298
            0.62391373    0.53532814243847
             0.1688554    0.44463454202535

10 0
 s    3 1.00
            3.42525091    0.15432897070298
            0.62391373    0.53532814243847
             0.1688554    0.44463454202535

11 0
 s    3 1.00
            3.42525091    0.15432897070298
            0.62391373    0.53532814243847
             0.1688554    0.44463454202535

12 0
 s    3 1.00
            3.42525091    0.15432897070298
            0.62391373    0.53532814243847
             0.1688554    0.44463454202535

13 0
 s    3 1.00
            3.42525091    0.15432897070298
            0.62391373    0.53532814243847
             0.1688554    0.44463454202535

14 0
 s    3 1.00
            3.42525091    0.15432897070298
            0.62391373    0.53532814243847
             0.1688554    0.44463454202535

15 0
 s    3 1.00
            3.42525091    0.15432897070298
            0.62391373    0.53532814243847
             0.1688554    0.44463454202535

16 0
 s    3 1.00
            3.42525091    0.15432897070298
            0.62391373    0.53532814243847
             0.1688554    0.44463454202535

17 0
 s    3 1.00
            3.42525091    0.15432897070298
            0.62391373    0.53532814243847
             0.1688554    0.44463454202535

18 0
 s    3 1.00
            3.42525091    0.15432897070298
            0.62391373    0.53532814243847
             0.1688554    0.44463454202535

19 0
 s    3 1.00
            3.42525091    0.15432897070298
            0.62391373    0.53532814243847
             0.1688554    0.44463454202535

20 0
 s    3 1.00
            3.42525091    0.15432897070298
            0.62391373    0.53532814243847
             0.1688554    0.44463454202535

21 0
 s    3 1.00
            3.42525091    0.15432897070298
            0.62391373    0.53532814243847
             0.1688554    0.44463454202535

22 0
 s    3 1.00
            3.42525091    0.15432897070298
            0.62391373    0.53532814243847
             0.1688554    0.44463454202535

23 0
 s    3 1.00
            3.42525091    0.15432897070298
            0.62391373    0.53532814243847
             0.1688554    0.44463454202535

24 0
 s    3 1.00
            3.42525091    0.15432897070298
            0.62391373    0.53532814243847
             0.1688554    0.44463454202535

25 0
 s    3 1.00
            3.42525091    0.15432897070298
            0.62391373    0.53532814243847
             0.1688554    0.44463454202535

26 0
 s    3 1.00
            3.42525091    0.15432897070298
            0.62391373    0.53532814243847
             0.1688554    0.44463454202535

27 0
 s    3 1.00
            3.42525091    0.15432897070298
            0.62391373    0.53532814243847
             0.1688554    0.44463454202535

28 0
 s    3 1.00
            3.42525091    0.15432897070298
            0.62391373    0.53532814243847
             0.1688554    0.44463454202535

29 0
 s    3 1.00
            3.42525091    0.15432897070298
            0.62391373    0.53532814243847
             0.1688554    0.44463454202535

30 0
 s    3 1.00
            3.42525091    0.15432897070298
            0.62391373    0.53532814243847
             0.1688554    0.44463454202535

31 0
 s    3 1.00
            3.42525091    0.15432897070298
            0.62391373    0.53532814243847
             0.1688554    0.44463454202535

32 0
 s    3 1.00
            3.42525091    0.15432897070298
            0.62391373    0.53532814243847
             0.1688554    0.44463454202535

[5d]
[7f]
[9g]

[MO]
 Sym= A
 Ene=               0
 Spin= Alpha
 Occup=    1.00000
   1      0.62770807509657
   2      0.65405836670156
   3     -0.10506492095392
   4     0.014532169909349
   5    -0.0021001079446001
   6    0.00032214204683496
   7    -5.1600855994144e-05
   8    8.5002255151558e-06
   9    -1.4261649780535e-06
  10    2.4233219568853e-07
  11    -4.1559690887106e-08
  12    7.178085559949e-09
  13    -1.2467553338378e-09
  14    2.1753695430401e-10
  15    -3.8094414312615e-11
  16    6.6594828072916e-12
  17    -9.7962469312867e-13
  18    -9.2152753149418e-13
  19    6.3776626215688e-12
  20    -3.6501333018952e-11
  21    2.0845154933105e-10
  22    -1.1947528139516e-09
  23    6.8791493124656e-09
  24    -3.9832186437967e-08
  25    2.3228304152637e-07
  26    -1.3672045356385e-06
  27    8.150252805116e-06
  28    -4.9488691350163e-05
  29    0.00030906967237344
  30    -0.0020159836106071
  31     0.013960004043699
  32     -0.10098244763125
 Sym= A
 Ene=               1
 Spin= Alpha
 Occup=    1.00000
   1     -0.88988314693912
   2      0.87069919931937
   3     -0.13484233260631
   4     0.018901278271258
   5    -0.0027795615457638
   6    0.00043198866598593
   7    -6.9805150136429e-05
   8    1.1567028819313e-05
   9    -1.9488032209982e-06
  10    3.3216301597484e-07
  11    -5.7102107225416e-08
  12    9.8814435080559e-09
  13    -1.7189973234303e-09
  14    3.0033219674534e-10
  15    -5.2669521558736e-11
  16    9.3139438161662e-12
  17    -1.9280262027755e-12
  18    1.9564951910989e-12
  19    -9.5091073848512e-12
  20    5.3786040496693e-11
  21    -3.0670772868865e-10
  22    1.7555387585586e-09
  23    -1.0091835358341e-08
  24    5.8320283729394e-08
  25    -3.3926648953484e-07
  26    1.9906110357905e-06
  27    -1.1816233271067e-05
  28    7.1318137618388e-05
  29    -0.0004414358883217
  30    0.0028411662829593
  31    -0.019327715065719
  32      0.13792620326888
 Sym= A
 Ene=               2
 Spin= Alpha
 Occup=    1.00000
   1     0.013960004043699
   2     -0.10098244763125
   3      0.62770807509657
   4      0.65405836670156
   5     -0.10506492095392
   6     0.014532169909349
   7    -0.0021001079445998
   8    0.00032214204683549
   9    -5.1600855994005e-05
  10    8.5002255153293e-06
  11    -1.4261649780309e-06
  12    2.4233219617888e-07
  13    -4.1559690412997e-08
  14    7.1780861807018e-09
  15    -1.2467548768042e-09
  16    2.1753711545522e-10
  17    -3.809440968771e-11
  18    6.6593045038058e-12
  19    -9.7958304499443e-13
  20    -9.2167878615675e-13
  21    6.3774060308493e-12
  22    -3.6501802214708e-11
  23    2.0845104363043e-10
  24    -1.1947527969171e-09
  25    6.8791492054372e-09
  26    -3.9832186488114e-08
  27    2.3228304144477e-07
  28    -1.3672045354431e-06
  29    8.1502528049736e-06
  30    -4.948869135022e-05
  31    0.00030906967237353
  32    -0.0020159836106069
 Sym= A
 Ene=               3
 Spin= Alpha
 Occup=    1.00000
   1    -0.019327715065719
   2      0.13792620326888
   3     -0.88988314693912
   4      0.87069919931937
   5     -0.13484233260631
   6     0.018901278271258
   7    -0.002779561545764
   8    0.00043198866598606
   9    -6.9805150136577e-05
  10    1.1567028819206e-05
  11    -1.9488032208549e-06
  12    3.3216301630493e-07
  13    -5.7102107663043e-08
  14    9.8814438239253e-09
  15    -1.7189972578255e-09
  16    3.0033228149974e-10
  17    -5.2669633198712e-11
  18    9.313881531383e-12
  19    -1.927954381055e-12
  20    1.9563613486988e-12
  21    -9.5087857450258e-12
  22    5.3785904052223e-11
  23    -3.0670785967967e-10
  24    1.755538597662e-09
  25    -1.0091835218048e-08
  26    5.8320283751065e-08
  27    -3.3926648963292e-07
  28    1.9906110359091e-06
  29    -1.1816233271184e-05
  30    7.1318137618007e-05
  31    -0.00044143588832152
  32     0.002841166282959
 Sym= A
 Ene=               4
 Spin= Alpha
 Occup=    1.00000
   1    0.00030906967237328
   2    -0.002015983610607
   3     0.013960004043699
   4     -0.10098244763125
   5      0.62770807509657
   6      0.65405836670156
   7     -0.10506492095392
   8     0.014532169909349
   9    -0.0021001079445997
  10    0.00032214204683582
  11    -5.1600855993419e-05
  12    8.5002255154892e-06
  13    -1.426164977457e-06
  14    2.4233219647705e-07
  15    -4.1559689931685e-08
  16    7.1780863175712e-09
  17    -1.246754666146e-09
  18    2.1753725638306e-10
  19    -3.8094294034298e-11
  20    6.6596453581224e-12
  21    -9.7990874587403e-13
  22    -9.2191742553368e-13
  23    6.3770503416285e-12
  24    -3.6501783803401e-11
  25    2.0845114904926e-10
  26    -1.1947528965836e-09
  27    6.8791493342633e-09
  28    -3.9832186584055e-08
  29    2.3228304138851e-07
  30    -1.3672045354935e-06
  31    8.1502528049118e-06
  32    -4.9488691350249e-05
 Sym= A
 Ene=               5
 Spin= Alpha
 Occup=    1.00000
   1    -0.0004414358883218
   2    0.0028411662829593
   3    -0.019327715065719
   4      0.13792620326888
   5     -0.88988314693912
   6      0.87069919931937
   7     -0.13484233260631
   8     0.018901278271259
   9    -0.0027795615457637
  10    0.00043198866598621
  11    -6.9805150136668e-05
  12    1.1567028819406e-05
  13    -1.948803220546e-06
  14    3.3216301652226e-07
  15    -5.7102107634927e-08
  16    9.8814435774926e-09
  17    -1.7189970661782e-09
  18     3.00332380956e-10
  19    -5.2669391058608e-11
  20    9.3138209685542e-12
  21    -1.9283361961528e-12
  22    1.9563634370116e-12
  23    -9.5087500087759e-12
  24    5.3786142740642e-11
  25    -3.0670813508422e-10
  26    1.7555388970028e-09
  27    -1.0091835047258e-08
  28    5.8320283400161e-08
  29    -3.3926648926307e-07
  30    1.9906110358126e-06
  31    -1.1816233271064e-05
  32    7.1318137618396e-05
 Sym= A
 Ene=               6
 Spin= Alpha
 Occup=    1.00000
   1    8.1502528050319e-06
   2    -4.9488691349999e-05
   3    0.00030906967237374
   4    -0.0020159836106066
   5     0.013960004043699
   6     -0.10098244763125
   7      0.62770807509657
   8      0.65405836670156
   9     -0.10506492095392
  10     0.014532169909349
  11    -0.002100107944599
  12    0.00032214204683639
  13    -5.1600855993031e-05
  14    8.5002255160021e-06
  15    -1.4261649766532e-06
  16    2.4233219679988e-07
  17    -4.1559689650461e-08
  18    7.1780866908759e-09
  19    -1.2467545355879e-09
  20    2.1753740785279e-10
  21    -3.8094549015272e-11
  22    6.6591251619589e-12
  23    -9.7992316511693e-13
  24    -9.220861157635e-13
  25    6.3767673392604e-12
  26    -3.6501993491134e-11
  27    2.0845075657902e-10
  28    -1.1947525762689e-09
  29    6.8791488484951e-09
  30    -3.9832186652278e-08
  31    2.3228304141061e-07
  32    -1.3672045355697e-06
 Sym= A
 Ene=               7
 Spin= Alpha
 Occup=    1.00000
   1    -1.1816233271284e-05
   2    7.1318137618496e-05
   3    -0.00044143588832188
   4    0.0028411662829596
   5    -0.019327715065719
   6      0.13792620326888
   7     -0.88988314693912
   8      0.87069919931937
   9     -0.13484233260631
  10     0.018901278271258
  11    -0.0027795615457636
  12    0.00043198866598606
  13    -6.9805150136254e-05
  14    1.1567028819151e-05
  15    -1.9488032208421e-06
  16    3.3216301633638e-07
  17    -5.7102107388361e-08
  18    9.8814433957634e-09
  19    -1.7189970455372e-09
  20    3.0033221972178e-10
  21    -5.266954375602e-11
  22    9.3141212391589e-12
  23    -1.9283550955288e-12
  24    1.9568179270703e-12
  25    -9.5094739626015e-12
  26    5.3786070332294e-11
  27    -3.0670778274729e-10
  28    1.7555385835753e-09
  29    -1.0091835248025e-08
  30    5.8320283678946e-08
  31    -3.3926648967018e-07
  32    1.9906110358854e-06
 Sym= A
 Ene=               8
 Spin= Alpha
 Occup=    1.00000
   1    2.3228304185766e-07
   2    -1.3672045356537e-06
   3    8.1502528053005e-06
   4    -4.9488691349953e-05
   5    0.00030906967237375
   6    -0.0020159836106061
   7       0.0139600040437
   8     -0.10098244763125
   9      0.62770807509657
  10      0.65405836670156
  11     -0.10506492095392
  12      0.01453216990935
  13    -0.0021001079445986
  14     0.000322142046837
  15    -5.1600855992436e-05
  16    8.5002255166228e-06
  17    -1.4261649765867e-06
  18    2.4233219692327e-07
  19    -4.1559689652246e-08
  20    7.1780867484907e-09
  21    -1.2467544359636e-09
  22    2.1753718084045e-10
  23    -3.8094351830456e-11
  24    6.659315375089e-12
  25    -9.7997380401743e-13
  26    -9.2230130442481e-13
  27    6.3770315230132e-12
  28    -3.6501829654786e-11
  29    2.0845109719875e-10
  30    -1.1947527892037e-09
  31    6.8791492095543e-09
  32    -3.9832186511234e-08
 Sym= A
 Ene=               9
 Spin= Alpha
 Occup=    1.00000
   1    -3.3926648965315e-07
   2    1.9906110358613e-06
   3    -1.1816233271277e-05
   4    7.1318137618499e-05
   5    -0.00044143588832168
   6    0.0028411662829596
   7    -0.019327715065719
   8      0.13792620326888
   9     -0.88988314693912
  10      0.87069919931938
  11     -0.13484233260631
  12     0.018901278271259
  13    -0.0027795615457637
  14    0.00043198866598596
  15    -6.9805150136045e-05
  16    1.1567028819063e-05
  17    -1.9488032208121e-06
  18    3.3216301637297e-07
  19    -5.7102107654134e-08
  20    9.8814440442738e-09
  21    -1.7189972441283e-09
  22    3.0033279643224e-10
  23    -5.2669491092271e-11
  24    9.3139973520679e-12
  25    -1.9281122532894e-12
  26    1.956901298175e-12
  27    -9.5091499582033e-12
  28    5.3786152937694e-11
  29    -3.0670798249181e-10
  30    1.7555387331583e-09
  31    -1.0091835271421e-08
  32    5.8320283877209e-08
 Sym= A
 Ene=              10
 Spin= Alpha
 Occup=    1.00000
   1    6.8791492897623e-09
   2    -3.9832186410761e-08
   3    2.3228304186889e-07
   4    -1.3672045351819e-06
   5    8.1502528056181e-06
   6    -4.9488691349519e-05
   7    0.00030906967237441
   8    -0.0020159836106056
   9       0.0139600040437
  10     -0.10098244763124
  11      0.62770807509657
  12      0.65405836670156
  13     -0.10506492095392
  14      0.01453216990935
  15    -0.0021001079445981
  16    0.00032214204683706
  17    -5.160085599237e-05
  18    8.5002255169302e-06
  19    -1.4261649763288e-06
  20    2.4233219705936e-07
  21    -4.1559689464062e-08
  22    7.1780863335659e-09
  23    -1.2467545527649e-09
  24    2.1753750462755e-10
  25    -3.8094864669933e-11
  26    6.6591332977459e-12
  27    -9.8006183311602e-13
  28    -9.2195522178238e-13
  29    6.3772282917267e-12
  30    -3.6501771581296e-11
  31    2.0845120887779e-10
  32    -1.1947527801098e-09
 Sym= A
 Ene=              11
 Spin= Alpha
 Occup=    1.00000
   1    -1.0091835244396e-08
   2    5.8320283643854e-08
   3    -3.3926648952941e-07
   4    1.9906110362039e-06
   5    -1.1816233271695e-05
   6    7.1318137618497e-05
   7    -0.00044143588832168
   8    0.0028411662829595
   9    -0.019327715065719
  10      0.13792620326888
  11     -0.88988314693912
  12      0.87069919931937
  13     -0.13484233260631
  14     0.018901278271258
  15    -0.0027795615457641
  16    0.00043198866598587
  17    -6.9805150136428e-05
  18    1.1567028819354e-05
  19    -1.9488032208515e-06
  20    3.3216301612927e-07
  21    -5.7102107415267e-08
  22    9.8814437990049e-09
  23    -1.7189975846403e-09
  24    3.0033267505218e-10
  25    -5.2669872294104e-11
  26    9.3140920944502e-12
  27    -1.9282765406523e-12
  28    1.9564679843146e-12
  29    -9.5088670559422e-12
  30    5.3786143490473e-11
  31    -3.0670785288932e-10
  32    1.7555385698709e-09
 Sym= A
 Ene=              12
 Spin= Alpha
 Occup=    1.00000
   1    2.0845144730287e-10
   2    -1.1947525717008e-09
   3    6.8791498765706e-09
   4    -3.9832185899978e-08
   5    2.322830419936e-07
   6    -1.367204534466e-06
   7    8.1502528059823e-06
   8    -4.9488691348968e-05
   9    0.00030906967237498
  10    -0.0020159836106052
  11     0.013960004043701
  12     -0.10098244763124
  13      0.62770807509657
  14      0.65405836670156
  15     -0.10506492095392
  16     0.014532169909351
  17    -0.0021001079445976
  18    0.00032214204683759
  19    -5.1600855991612e-05
  20    8.5002255169843e-06
  21    -1.4261649763159e-06
  22    2.4233219685473e-07
  23    -4.1559689462321e-08
  24    7.1780866121618e-09
  25    -1.2467546438985e-09
  26    2.1753736074042e-10
  27    -3.8094318133242e-11
  28    6.6594477459668e-12
  29    -9.7951696872382e-13
  30    -9.2159695810437e-13
  31    6.3774741718271e-12
  32    -3.6501317747357e-11
 Sym= A
 Ene=              13
 Spin= Alpha
 Occup=    1.00000
   1    -3.0670778089236e-10
   2    1.7555389563708e-09
   3    -1.0091835550552e-08
   4    5.8320284099435e-08
   5    -3.3926648959556e-07
   6    1.9906110360185e-06
   7    -1.1816233271301e-05
   8    7.1318137618166e-05
   9    -0.00044143588832157
  10    0.0028411662829595
  11    -0.019327715065719
  12      0.13792620326888
  13     -0.88988314693912
  14      0.87069919931937
  15     -0.13484233260631
  16     0.018901278271258
  17    -0.002779561545764
  18    0.00043198866598606
  19    -6.9805150136381e-05
  20    1.1567028819502e-05
  21    -1.9488032208816e-06
  22    3.3216301629377e-07
  23    -5.710210741088e-08
  24    9.8814439022967e-09
  25    -1.7189972010178e-09
  26    3.0033250005608e-10
  27    -5.2669311746204e-11
  28    9.3141335110534e-12
  29    -1.9277208748116e-12
  30    1.956317368691e-12
  31    -9.508657772086e-12
  32    5.3785988990924e-11
 Sym= A
 Ene=              14
 Spin= Alpha
 Occup=    1.00000
   1    6.3777025101821e-12
   2    -3.6501049272645e-11
   3    2.0845167630697e-10
   4    -1.1947521694247e-09
   5    6.8791502647725e-09
   6    -3.9832185712713e-08
   7    2.3228304283917e-07
   8    -1.3672045341302e-06
   9    8.1502528065343e-06
  10    -4.9488691348325e-05
  11    0.00030906967237553
  12    -0.0020159836106051
  13     0.013960004043701
  14     -0.10098244763124
  15      0.62770807509657
  16      0.65405836670156
  17     -0.10506492095392
  18     0.014532169909351
  19    -0.0021001079445974
  20    0.00032214204683757
  21    -5.1600855991839e-05
  22    8.5002255167846e-06
  23    -1.4261649763054e-06
  24    2.4233219691925e-07
  25    -4.1559689567727e-08
  26    7.1780867089944e-09
  27    -1.2467543878908e-09
  28    2.1753737484084e-10
  29    -3.8094447947199e-11
  30    6.6594116539666e-12
  31    -9.7972491720982e-13
  32    -9.2160364675092e-13
 Sym= A
 Ene=              15
 Spin= Alpha
 Occup=    1.00000
   1    -9.5089954221955e-12
   2    5.3786062935531e-11
   3    -3.0670795907206e-10
   4    1.7555388197615e-09
   5    -1.0091835615798e-08
   6    5.8320283774667e-08
   7    -3.3926648988847e-07
   8    1.990611035824e-06
   9    -1.1816233271148e-05
  10    7.1318137618078e-05
  11    -0.00044143588832193
  12    0.0028411662829595
  13    -0.019327715065719
  14      0.13792620326888
  15     -0.88988314693912
  16      0.87069919931937
  17     -0.13484233260631
  18     0.018901278271259
  19    -0.0027795615457638
  20    0.00043198866598583
  21    -6.9805150136579e-05
  22    1.1567028819441e-05
  23    -1.948803220848e-06
  24    3.3216301629225e-07
  25    -5.7102107716546e-08
  26    9.8814436819314e-09
  27    -1.7189969355102e-09
  28    3.0033208219192e-10
  29    -5.2669472287822e-11
  30    9.3137998186214e-12
  31    -1.9280618092781e-12
  32    1.9566407860368e-12
 Sym= A
 Ene=              16
 Spin= Alpha
 Occup=    0.00000
   1    -9.7967280860739e-13
   2    -9.2148155252992e-13
   3    6.3776989621675e-12
   4    -3.6501227727029e-11
   5    2.0845167489175e-10
   6    -1.1947518464625e-09
   7    6.8791505858655e-09
   8    -3.9832185342504e-08
   9    2.3228304290043e-07
  10    -1.3672045340184e-06
  11    8.1502528067709e-06
  12    -4.9488691348169e-05
  13    0.0003090696723759
  14    -0.0020159836106045
  15     0.013960004043701
  16     -0.10098244763124
  17      0.62770807509657
  18      0.65405836670156
  19     -0.10506492095392
  20     0.014532169909351
  21    -0.0021001079445977
  22    0.00032214204683713
  23    -5.1600855992329e-05
  24    8.5002255166129e-06
  25    -1.426164976407e-06
  26    2.4233219692917e-07
  27    -4.1559689827944e-08
  28    7.1780864526967e-09
  29    -1.2467548116252e-09
  30    2.1753716684447e-10
  31    -3.8094527300057e-11
  32    6.6594338855741e-12
 Sym= A
 Ene=              17
 Spin= Alpha
 Occup=    0.00000
   1    -1.9280191483436e-12
   2    1.9564664876186e-12
   3    -9.509113862178e-12
   4    5.3786001091311e-11
   5    -3.0670796713447e-10
   6    1.7555387332379e-09
   7    -1.009183535389e-08
   8    5.8320283608923e-08
   9    -3.3926648987784e-07
  10    1.9906110358241e-06
  11    -1.1816233271341e-05
  12    7.1318137618477e-05
  13    -0.00044143588832195
  14    0.0028411662829595
  15    -0.019327715065719
  16      0.13792620326888
  17     -0.88988314693912
  18      0.87069919931938
  19     -0.13484233260631
  20     0.018901278271259
  21    -0.002779561545764
  22    0.00043198866598587
  23    -6.9805150136413e-05
  24    1.1567028819089e-05
  25    -1.9488032207098e-06
  26    3.3216301619079e-07
  27    -5.7102107492556e-08
  28    9.8814435819956e-09
  29    -1.7189972022346e-09
  30    3.0033225387655e-10
  31    -5.2669557697174e-11
  32    9.3139484291208e-12
 Sym= A
 Ene=              18
 Spin= Alpha
 Occup=    0.00000
   1    -3.8094486809726e-11
   2    6.6592494283571e-12
   3    -9.7965457389975e-13
   4    -9.2159173424144e-13
   5    6.3778224356852e-12
   6    -3.6500895650978e-11
   7    2.0845190645799e-10
   8    -1.1947517709431e-09
   9    6.8791503988398e-09
  10    -3.9832185109908e-08
  11    2.3228304323514e-07
  12    -1.367204533953e-06
  13    8.1502528070634e-06
  14    -4.9488691347629e-05
  15    0.00030906967237595
  16    -0.0020159836106044
  17     0.013960004043701
  18     -0.10098244763124
  19      0.62770807509657
  20      0.65405836670156
  21     -0.10506492095392
  22      0.01453216990935
  23    -0.0021001079445981
  24    0.00032214204683714
  25    -5.1600855992703e-05
  26    8.5002255162626e-06
  27    -1.4261649770714e-06
  28    2.4233219651285e-07
  29    -4.1559690117058e-08
  30    7.1780861513691e-09
  31    -1.246754884207e-09
  32    2.1753715878159e-10
 Sym= A
 Ene=              19
 Spin= Alpha
 Occup=    0.00000
   1    -5.2669714415974e-11
   2    9.3138686833929e-12
   3    -1.9280724851911e-12
   4    1.9562973026317e-12
   5    -9.5088890700726e-12
   6    5.3785952871438e-11
   7    -3.0670786418384e-10
   8    1.7555386348799e-09
   9    -1.0091835782001e-08
  10    5.8320284060262e-08
  11    -3.392664898206e-07
  12    1.9906110356719e-06
  13    -1.1816233271735e-05
  14    7.131813761819e-05
  15    -0.00044143588832181
  16    0.0028411662829593
  17     -0.01932771506572
  18      0.13792620326888
  19     -0.88988314693912
  20      0.87069919931937
  21     -0.13484233260631
  22     0.018901278271258
  23    -0.0027795615457639
  24    0.00043198866598568
  25    -6.980515013633e-05
  26    1.1567028818938e-05
  27    -1.9488032211774e-06
  28    3.3216301630344e-07
  29    -5.7102107695866e-08
  30    9.8814436683865e-09
  31    -1.7189972419445e-09
  32    3.0033210279153e-10
 Sym= A
 Ene=              20
 Spin= Alpha
 Occup=    0.00000
   1    -1.2467553303244e-09
   2    2.1753680381574e-10
   3    -3.8094967624473e-11
   4    6.6589927539721e-12
   5    -9.7979475619638e-13
   6    -9.2203256193254e-13
   7    6.3774056964059e-12
   8    -3.6501228236655e-11
   9    2.0845163759862e-10
  10    -1.1947516533551e-09
  11    6.8791503036876e-09
  12    -3.9832185240061e-08
  13    2.3228304305518e-07
  14    -1.3672045339726e-06
  15    8.1502528069915e-06
  16    -4.9488691347981e-05
  17    0.00030906967237566
  18    -0.0020159836106048
  19     0.013960004043701
  20     -0.10098244763124
  21      0.62770807509657
  22      0.65405836670156
  23     -0.10506492095392
  24      0.01453216990935
  25    -0.0021001079445988
  26    0.00032214204683641
  27    -5.1600855993178e-05
  28    8.5002255157855e-06
  29    -1.4261649777654e-06
  30    2.4233219614411e-07
  31    -4.1559690379839e-08
  32    7.1780855295833e-09
 Sym= A
 Ene=              21
 Spin= Alpha
 Occup=    0.00000
   1    -1.7189973586677e-09
   2    3.0033187184103e-10
   3    -5.2669575451288e-11
   4    9.3135135845694e-12
   5    -1.9281569841201e-12
   6    1.9565043680777e-12
   7    -9.5092221448825e-12
   8    5.3786057721534e-11
   9    -3.0670842029092e-10
  10    1.7555388728443e-09
  11    -1.0091835827917e-08
  12    5.8320283563417e-08
  13    -3.3926649004926e-07
  14    1.9906110356445e-06
  15    -1.1816233271783e-05
  16    7.1318137618273e-05
  17    -0.00044143588832205
  18    0.0028411662829593
  19    -0.019327715065719
  20      0.13792620326888
  21     -0.88988314693912
  22      0.87069919931937
  23     -0.13484233260631
  24     0.018901278271258
  25    -0.002779561545764
  26    0.00043198866598588
  27    -6.9805150136334e-05
  28    1.1567028819021e-05
  29    -1.9488032207972e-06
  30    3.3216301624199e-07
  31    -5.7102107727005e-08
  32    9.8814435886421e-09
 Sym= A
 Ene=              22
 Spin= Alpha
 Occup=    0.00000
   1    -4.1559690865086e-08
   2    7.1780855576837e-09
   3    -1.2467554260973e-09
   4    2.1753641648739e-10
   5    -3.8095291639346e-11
   6    6.6589385767882e-12
   7    -9.8008874723189e-13
   8    -9.2193288146617e-13
   9    6.3776155537438e-12
  10    -3.6501061870933e-11
  11    2.0845197149545e-10
  12    -1.1947517784695e-09
  13    6.8791503787307e-09
  14    -3.9832185023455e-08
  15    2.3228304305374e-07
  16    -1.3672045339052e-06
  17    8.150252806781e-06
  18    -4.9488691348446e-05
  19    0.00030906967237565
  20    -0.0020159836106051
  21       0.0139600040437
  22     -0.10098244763125
  23      0.62770807509657
  24      0.65405836670156
  25     -0.10506492095392
  26     0.014532169909349
  27    -0.0021001079445993
  28    0.00032214204683596
  29    -5.160085599353e-05
  30    8.5002255153284e-06
  31    -1.4261649778801e-06
  32    2.4233219568841e-07
 Sym= A
 Ene=              23
 Spin= Alpha
 Occup=    0.00000
   1    -5.7102107347411e-08
   2    9.8814435385439e-09
   3    -1.7189970707764e-09
   4    3.0033212729286e-10
   5    -5.2669487788064e-11
   6    9.3138131210771e-12
   7    -1.9284893263194e-12
   8    1.9566347608208e-12
   9    -9.5091081224004e-12
  10    5.3785944215334e-11
  11    -3.0670832775326e-10
  12    1.7555392004315e-09
  13    -1.0091835743773e-08
  14    5.832028373377e-08
  15    -3.3926648998851e-07
  16    1.9906110356625e-06
  17    -1.1816233271378e-05
  18    7.1318137618169e-05
  19    -0.00044143588832172
  20    0.0028411662829593
  21    -0.019327715065719
  22      0.13792620326888
  23     -0.88988314693912