[Molden Format]
made by pyscf v[2.8.0]
[Atoms] (AU)
C   1   6    -1.11356477875440     0.61650272190070     0.00000000000000
H   2   1    -1.10853261193949     2.66952733328035     0.00000000000000
C   3   6     1.11801509643892    -0.61637081674953     0.00000000000000
H   4   1     1.11298292962400    -2.66939542812918     0.00000000000000
C   5   6     3.55405874892130     0.61650272190070     0.00000000000000
H   6   1     3.55909091573622     2.66952733328035     0.00000000000000
C   7   6     5.78563862411462    -0.61637081674953     0.00000000000000
H   8   1     5.78060645729970    -2.66939542812918     0.00000000000000
C   9   6     8.22168227659701     0.61650272190070     0.00000000000000
H   10   1     8.22671444341192     2.66952733328035     0.00000000000000
C   11   6    10.45326215179032    -0.61637081674953     0.00000000000000
H   12   1    10.44822998497541    -2.66939542812918     0.00000000000000
C   13   6    12.88930580427271     0.61650272190070     0.00000000000000
H   14   1    12.89433797108762     2.66952733328035     0.00000000000000
C   15   6    15.12088567946602    -0.61637081674953     0.00000000000000
H   16   1    15.11585351265111    -2.66939542812918     0.00000000000000
[GTO]
1 0
 s    3 1.00
               172.256   0.061766907377115
               25.9109    0.35879404285247
               5.53335    0.70071308368949
 s    2 1.00
               3.66498   -0.39589516211925
              0.770545     1.2158343556811
 s    1 1.00
              0.195857                   1
 p    2 1.00
               3.66498    0.23645994661946
              0.770545    0.86061880571636
 p    1 1.00
              0.195857                   1

2 0
 s    2 1.00
              5.447178     0.1562849806701
              0.824547    0.90469088810453
 s    1 1.00
              0.183192                   1

3 0
 s    3 1.00
               172.256   0.061766907377115
               25.9109    0.35879404285247
               5.53335    0.70071308368949
 s    2 1.00
               3.66498   -0.39589516211925
              0.770545     1.2158343556811
 s    1 1.00
              0.195857                   1
 p    2 1.00
               3.66498    0.23645994661946
              0.770545    0.86061880571636
 p    1 1.00
              0.195857                   1

4 0
 s    2 1.00
              5.447178     0.1562849806701
              0.824547    0.90469088810453
 s    1 1.00
              0.183192                   1

5 0
 s    3 1.00
               172.256   0.061766907377115
               25.9109    0.35879404285247
               5.53335    0.70071308368949
 s    2 1.00
               3.66498   -0.39589516211925
              0.770545     1.2158343556811
 s    1 1.00
              0.195857                   1
 p    2 1.00
               3.66498    0.23645994661946
              0.770545    0.86061880571636
 p    1 1.00
              0.195857                   1

6 0
 s    2 1.00
              5.447178     0.1562849806701
              0.824547    0.90469088810453
 s    1 1.00
              0.183192                   1

7 0
 s    3 1.00
               172.256   0.061766907377115
               25.9109    0.35879404285247
               5.53335    0.70071308368949
 s    2 1.00
               3.66498   -0.39589516211925
              0.770545     1.2158343556811
 s    1 1.00
              0.195857                   1
 p    2 1.00
               3.66498    0.23645994661946
              0.770545    0.86061880571636
 p    1 1.00
              0.195857                   1

8 0
 s    2 1.00
              5.447178     0.1562849806701
              0.824547    0.90469088810453
 s    1 1.00
              0.183192                   1

9 0
 s    3 1.00
               172.256   0.061766907377115
               25.9109    0.35879404285247
               5.53335    0.70071308368949
 s    2 1.00
               3.66498   -0.39589516211925
              0.770545     1.2158343556811
 s    1 1.00
              0.195857                   1
 p    2 1.00
               3.66498    0.23645994661946
              0.770545    0.86061880571636
 p    1 1.00
              0.195857                   1

10 0
 s    2 1.00
              5.447178     0.1562849806701
              0.824547    0.90469088810453
 s    1 1.00
              0.183192                   1

11 0
 s    3 1.00
               172.256   0.061766907377115
               25.9109    0.35879404285247
               5.53335    0.70071308368949
 s    2 1.00
               3.66498   -0.39589516211925
              0.770545     1.2158343556811
 s    1 1.00
              0.195857                   1
 p    2 1.00
               3.66498    0.23645994661946
              0.770545    0.86061880571636
 p    1 1.00
              0.195857                   1

12 0
 s    2 1.00
              5.447178     0.1562849806701
              0.824547    0.90469088810453
 s    1 1.00
              0.183192                   1

13 0
 s    3 1.00
               172.256   0.061766907377115
               25.9109    0.35879404285247
               5.53335    0.70071308368949
 s    2 1.00
               3.66498   -0.39589516211925
              0.770545     1.2158343556811
 s    1 1.00
              0.195857                   1
 p    2 1.00
               3.66498    0.23645994661946
              0.770545    0.86061880571636
 p    1 1.00
              0.195857                   1

14 0
 s    2 1.00
              5.447178     0.1562849806701
              0.824547    0.90469088810453
 s    1 1.00
              0.183192                   1

15 0
 s    3 1.00
               172.256   0.061766907377115
               25.9109    0.35879404285247
               5.53335    0.70071308368949
 s    2 1.00
               3.66498   -0.39589516211925
              0.770545     1.2158343556811
 s    1 1.00
              0.195857                   1
 p    2 1.00
               3.66498    0.23645994661946
              0.770545    0.86061880571636
 p    1 1.00
              0.195857                   1

16 0
 s    2 1.00
              5.447178     0.1562849806701
              0.824547    0.90469088810453
 s    1 1.00
              0.183192                   1

[5d]
[7f]
[9g]

[MO]
 Sym= A
 Ene=               0
 Spin= Alpha
 Occup=    1.00000
   1    1.8420596131436e-16
   2    1.5854227252567e-15
   3    -9.57520825345e-15
   4    -4.4870444292304e-15
   5    2.2098046782094e-15
   6     -0.15767258707112
   7    -4.5037433032304e-15
   8    6.0508130537507e-15
   9     -0.15327339791116
  10    -6.5002325012966e-16
  11    -1.0493323809129e-15
  12    -5.8613015811118e-16
  13    3.3207136039644e-17
  14    9.5073431929251e-15
  15    5.4052920925435e-15
  16    -3.0509048880772e-15
  17     -0.15767259501777
  18    -7.5448408113264e-16
  19    -1.1688538535722e-15
  20     -0.15327340900619
  21    -1.4224651318231e-15
  22    -1.7698820218251e-15
  23    -6.4604115147469e-17
  24    -3.6747424661283e-16
  25    1.0407539889221e-14
  26    -3.2093677139144e-15
  27    7.7443636318532e-16
  28     -0.15767262781825
  29    4.5074387042934e-15
  30    -8.3431625186935e-15
  31     -0.15327344039267
  32    5.5028021971562e-16
  33    3.6049388108608e-15
  34    2.0186041161377e-16
  35    -2.7516598160133e-16
  36    -3.6997321658207e-15
  37    2.4988660596738e-15
  38    1.9258861047432e-15
  39     -0.15767262929735
  40    1.8771311878591e-14
  41    -3.3267293936658e-15
  42     -0.15327345604538
  43    -1.6638904403672e-16
  44    -1.0707218153581e-15
  45    -1.089133709881e-16
  46    2.3769165463477e-16
  47    1.7105594301696e-15
  48    -6.3014212818798e-15
  49    1.2336653668491e-15
  50      -0.1576726292973
  51    2.1801464607813e-15
  52    1.1332798036404e-14
  53     -0.15327345604539
  54    -1.8353564866085e-15
  55    -5.7426905761614e-15
  56    -3.7112480808398e-16
  57    1.5555238141269e-15
  58     3.38079680771e-15
  59    5.6073677213704e-15
  60    -5.5700451837912e-15
  61     -0.15767262781833
  62    6.0288830519054e-15
  63    -1.2687246022459e-14
  64     -0.15327344039269
  65    -2.6576317211422e-15
  66    -6.3134784531892e-15
  67    3.1344305350882e-16
  68    6.3981062472125e-16
  69    1.8353807614715e-15
  70    -1.9454805544142e-15
  71    2.1456478722638e-15
  72     -0.15767259501774
  73    -2.855557312255e-15
  74    1.5715808762362e-15
  75     -0.15327340900621
  76    -2.9769087804535e-16
  77    -5.7411159282083e-16
  78    5.372013705235e-16
  79    -1.4196093036986e-15
  80    1.6912825759415e-15
  81    2.9482831498414e-15
  82    1.2295548162087e-15
  83     -0.15767258707119
  84    9.1889928168543e-15
  85    1.4739154661951e-15
  86     -0.15327339791117
  87    6.0173580939444e-16
  88    4.8929995648277e-16
 Sym= A
 Ene=               1
 Spin= Alpha
 Occup=    1.00000
   1    -2.5756645348497e-21
   2    1.3982447819753e-17
   3    -3.6040851972274e-15
   4    -3.0671076563532e-16
   5    -1.3765222534402e-15
   6      0.19783583083942
   7    1.4454233384938e-15
   8    3.9909687831798e-15
   9      0.21387273718768
  10    -2.3758722638472e-16
  11    -1.6789504805352e-15
  12    -1.2270979871132e-16
  13    -1.1407985510736e-15
  14    7.0325554048499e-15
  15    -4.1432699743351e-16
  16    5.3418581269378e-16
  17      0.11184862539805
  18    6.9192229718988e-16
  19    -3.5632396326837e-15
  20      0.13188629546157
  21    -7.49803114431e-16
  22    -3.2305026466263e-15
  23    1.859730263347e-16
  24    9.3351514516139e-16
  25    -5.6058804461087e-15
  26    -1.8362130050337e-15
  27    -4.6152234240701e-16
  28     -0.11184924486034
  29    -1.1884631666314e-15
  30    6.8887178943769e-15
  31     -0.13188696384579
  32    -7.7420456206953e-16
  33    -2.7409949648541e-15
  34    8.394061867091e-18
  35    -8.1355556415635e-16
  36    3.4828394343243e-15
  37    3.8376105497666e-16
  38    -8.4131873222365e-16
  39     -0.19783615415051
  40    -5.2951280224086e-15
  41    2.3864829547193e-15
  42     -0.21387314385019
  43    1.8010058393609e-16
  44    8.3489884230379e-16
  45    -2.5618368941178e-16
  46    -1.1931203812927e-15
  47    8.4400942945768e-15
  48    -8.0003591259014e-16
  49    1.2971157829479e-15
  50      -0.1978357827635
  51    3.5607152896574e-15
  52    -6.2868380941549e-15
  53      -0.2138727059293
  54    2.4017612103767e-16
  55    2.0945213340394e-15
  56    1.8162674234558e-16
  57    1.3921310425968e-15
  58    -1.3054254731739e-14
  59    5.244310081831e-16
  60    4.9082455257297e-16
  61     -0.11184858795915
  62    2.6860030206785e-15
  63    -5.2079824001838e-17
  64     -0.13188625369504
  65    6.6456659580534e-16
  66    1.7754772626371e-15
  67    -4.2836955555459e-16
  68    -2.3778059204099e-15
  69    1.3642044342218e-14
  70    -6.7917181207324e-16
  71    -1.3709738165812e-16
  72      0.11184928229918
  73    3.5425541992765e-15
  74    -8.5944920540965e-15
  75       0.1318870056123
  76    4.3351354180038e-16
  77    2.0694161794337e-15
  78    1.2803890587994e-16
  79    1.566516883688e-15
  80    -9.1067097317235e-15
  81    1.1338386492598e-18
  82    7.0805451815777e-16
  83      0.19783620222641
  84    1.0573066060633e-14
  85    -8.5167654979585e-17
  86      0.21387317510846
  87    5.1351395863237e-16
  88    9.8459564819831e-16
 Sym= A
 Ene=               2
 Spin= Alpha
 Occup=    1.00000
   1    5.8564239172518e-17
   2    1.0074233426817e-15
   3    -7.2258301090399e-15
   4    1.6394859584678e-16
   5    1.2883989251609e-15
   6     -0.11184925502031
   7    -7.7736596358901e-15
   8    3.9804849212131e-15
   9     -0.13188697146768
  10    -3.457325826483e-16
  11    -7.2458520726821e-16
  12    -2.2646140336743e-16
  13    -9.6174178474566e-16
  14    9.7398319086835e-15
  15    1.7934624776137e-17
  16    -4.8804301529122e-16
  17     -0.19783616955012
  18    -2.6058320802892e-15
  19    1.0009895901857e-14
  20     -0.21387314481733
  21    8.9685077047512e-16
  22    3.6799502109031e-15
  23    1.1267690349988e-16
  24    8.8168474805798e-16
  25    -4.7231877808087e-15
  26    -4.1664834106201e-16
  27    -7.5563856187502e-16
  28     -0.19783582313029
  29    4.9008223533305e-15
  30    -7.201946921598e-15
  31     -0.21387272952149
  32    1.3763705630316e-15
  33    4.5039221002739e-15
  34    -2.2899486820606e-16
  35    -9.9408344893267e-16
  36    3.7078665453517e-15
  37    1.1596328625896e-15
  38    1.0244569904948e-15
  39     -0.11184861087173
  40    6.5376919342074e-15
  41    1.3715408170237e-15
  42     -0.13188629388237
  43    -4.2613972444647e-17
  44    -1.3454955958635e-16
  45    1.1012011384935e-16
  46    7.9644607839234e-16
  47    -4.2142960844754e-15
  48    -1.0232514985815e-15
  49    -1.47324016714e-15
  50      0.11184926777278
  51    5.2028257747008e-15
  52    6.6260203325663e-15
  53      0.13188700403305
  54    -5.5433932930296e-16
  55    -2.6546502108832e-15
  56    2.6174590483644e-17
  57    9.3788361635986e-16
  58    -2.519158259964e-15
  59    5.6026130743391e-16
  60    7.9358664298272e-17
  61      0.19783619451722
  62    -3.3555555694044e-15
  63    -6.4454119930677e-15
  64      0.21387316744223
  65    -8.3638083198541e-16
  66    -2.5615359605468e-15
  67    -7.2637709670877e-17
  68    -1.347653377171e-15
  69    1.275530347456e-14
  70    -5.2800190196967e-16
  71    4.2695305002335e-16
  72      0.19783579816303
  73    8.2600494999983e-16
  74    -4.4215075748634e-16
  75      0.21387270689643
  76    -5.5591967650186e-16
  77    -1.6482726066463e-15
  78    1.770946338284e-16
  79    6.3935817140288e-16
  80    -5.6061794509241e-15
  81    -7.2720095885996e-16
  82    -4.0948670949481e-16
  83      0.11184859811907
  84    3.7714413220133e-15
  85    -7.3678620429368e-15
  86      0.13188626131686
  87    -7.8358180490348e-16
  88    -2.703685113941e-15
 Sym= A
 Ene=               3
 Spin= Alpha
 Occup=    1.00000
   1    -4.4265711382952e-17
   2    -8.0733117759891e-16
   3    3.4583303826544e-15
   4    -1.3225596429397e-15
   5    -5.6512139177437e-16
   6      0.17448429210661
   7    4.0145585247307e-15
   8    1.5742106172656e-15
   9      0.24647374022747
  10    -3.6883035666962e-16
  11    -1.5571608802301e-15
  12    4.0001103100603e-16
  13    1.5517317133991e-15
  14    -9.3320880141114e-15
  15    2.1392454241511e-16
  16    4.3082292085231e-16
  17      0.17448429656892
  18    -3.0734029140719e-15
  19    -4.3916752521407e-15
  20      0.24647374908977
  21    -2.5573273344826e-17
  22    -8.4487024941065e-16
  23    -5.7376169895183e-16
  24    -2.7313707249856e-15
  25    1.9094961733121e-14
  26    -1.111974315666e-15
  27    -1.6542585463934e-16
  28     -0.17448427768327
  29    1.6144129887293e-15
  30    -2.0824252937402e-15
  31     -0.24647371925439
  32    -8.4255933952261e-16
  33    -2.2651092365048e-15
  34    3.7065693542985e-16
  35    1.7039604211778e-15
  36    -1.5813341865456e-14
  37    -1.1065729522451e-15
  38    3.9532730351691e-17
  39     -0.17448427385684
  40    2.4988125035124e-15
  41    -6.7771040103213e-15
  42     -0.24647373909141
  43    -7.3571007528166e-17
  44    -1.0506613957035e-15
  45    -1.058639193416e-16
  46    -5.5439773896219e-16
  47    -1.7495558073096e-16
  48    7.624920438056e-16
  49    1.3373644681629e-15
  50       0.1744842738566
  51    -9.7331540880826e-15
  52    -4.4202160079051e-15
  53      0.24647373909104
  54    4.3907084336027e-16
  55    2.2972578535298e-15
  56    -1.8737586422626e-16
  57    -1.2602315215206e-15
  58    1.2149873428201e-14
  59    -3.2234218036382e-16
  60    -1.3730317066881e-15
  61       0.1744842776835
  62    5.6699674280677e-15
  63    1.4932772943871e-14
  64      0.24647371925475
  65    1.479994701293e-15
  66    5.607340040495e-15
  67    2.5946903024472e-16
  68    1.3138157303457e-15
  69    -1.0549870805716e-14
  70    -5.4111546480505e-16
  71    8.3263053370459e-17
  72      -0.1744842965687
  73    1.1557671055777e-14
  74    -1.7545630421917e-15
  75     -0.24647374908945
  76    7.9271263401087e-16
  77    2.6400545067866e-15
  78    -1.1822223704134e-16
  79    -2.3446827084814e-16
  80    -2.3341743765407e-15
  81    7.2371794530048e-16
  82    2.258191586467e-16
  83     -0.17448429210681
  84    2.6787989246194e-15
  85    -1.9949015635969e-15
  86     -0.24647374022778
  87    -8.924217807789e-17
  88    -1.095019822472e-15
 Sym= A
 Ene=               4
 Spin= Alpha
 Occup=    1.00000
   1    -2.5679204236693e-17
   2    5.7322536518754e-16
   3    4.7925513460247e-15
   4    3.4348412237738e-16
   5    -4.423285307039e-16
   6     -0.16309018882926
   7    4.9759891596764e-15
   8    9.9857653780936e-16
   9     -0.27974531420005
  10    -3.2425489365522e-16
  11    -9.4054796642229e-16
  12    -5.2878950149391e-17
  13    1.9863467100778e-16
  14    2.4813826998719e-16
  15    6.4761682710685e-16
  16    9.4023390131097e-16
  17      0.16309018102318
  18    4.9275028323522e-15
  19    -9.8842588719691e-15
  20      0.27974530425327
  21    -1.4722648819054e-15
  22    -4.3965731282616e-15
  23    3.377774702462e-16
  24    1.6746709196111e-15
  25    -1.3109539030912e-14
  26    3.7352404138487e-16
  27    -1.2921077323576e-15
  28      0.16309020380674
  29    -8.2376696976256e-15
  30    1.1823676544012e-14
  31       0.2797453485087
  32    -8.1584094622951e-16
  33    -3.9912169804806e-15
  34    -2.9236104410527e-16
  35    -1.2683982648021e-15
  36    1.3466261540482e-14
  37    -2.0658250856638e-16
  38    -1.2204344358403e-15
  39     -0.16309018968429
  40    -9.241161237445e-15
  41    7.2397769884584e-15
  42     -0.27974534386853
  43    1.4063536313322e-16
  44    2.2993085701825e-15
  45    -9.9532944769882e-17
  46    -1.5513341194442e-16
  47    6.3947111322871e-15
  48    -9.4669980647357e-17
  49    5.4540979337215e-16
  50     -0.16309018968446
  51    5.6260761640274e-15
  52    -7.5873452634416e-15
  53     -0.27974534386884
  54    7.0615292352736e-16
  55    2.910490569481e-15
  56    3.1899619615089e-17
  57    -7.6498881382386e-17
  58    -4.3523485751946e-15
  59    -1.0760309463748e-16
  60    9.962223212912e-16
  61      0.16309020380655
  62    7.5987727736485e-15
  63    -5.9681580914443e-15
  64      0.27974534850831
  65    -6.0696843627272e-16
  66    -2.3840653498365e-15
  67    2.0983870212788e-16
  68    1.799279953391e-15
  69    -1.2456472027216e-14
  70    -2.637566820738e-16
  71    -9.0463964717417e-16
  72      0.16309018102337
  73    -6.1677830189426e-15
  74    1.0049673556015e-14
  75      0.27974530425362
  76    -6.4987608012973e-16
  77    -2.9770088254643e-15
  78    -2.4209052689373e-16
  79    -1.7036776954002e-15
  80    1.5615408035517e-14
  81    2.101846462072e-16
  82    7.478751115115e-16
  83     -0.16309018882908
  84    -6.7565478892368e-15
  85    2.8643762331628e-15
  86     -0.27974531419968
  87    -5.1695424438042e-16
  88    -7.6242056411831e-16
 Sym= A
 Ene=               5
 Spin= Alpha
 Occup=    1.00000
   1    1.5344636202205e-16
   2    1.3480398017601e-15
   3    2.4576130035755e-15
   4    2.245180522573e-15
   5    -2.9317993953059e-15
   6     -0.22650515572319
   7    2.4703976424768e-15
   8    -7.2657812302781e-16
   9     -0.53975386918862
  10    1.4979837680411e-16
  11    -1.2560448371991e-16
  12    7.3653262588488e-16
  13    -5.2205600385923e-16
  14    -1.5064513547788e-16
  15    -7.5779866360115e-18
  16    3.1834390595775e-15
  17      0.10546616892884
  18    1.4626037512323e-14
  19    6.3259462806452e-15
  20      0.27032380746374
  21    1.8817534362789e-15
  22    3.6985866487883e-15
  23    1.4499108621985e-15
  24    3.4992786502979e-15
  25    -5.1577725773484e-14
  26    -5.4697612682769e-16
  27    -4.3915380317568e-15
  28      0.10546754743581
  29    -1.1848013427407e-14
  30    1.369922565147e-14
  31      0.27032716040512
  32    1.6243420112723e-15
  33    -4.797239429803e-16
  34    -2.1746943474894e-16
  35    -3.009209469163e-15
  36    2.4530594259996e-14
  37    2.9490265265056e-15
  38    1.8842586062695e-15
  39     -0.22650580691192
  40    -2.9165463754337e-14
  41    2.4495334661087e-14
  42     -0.53975564786213
  43    2.587478653212e-15
  44    7.7452642161984e-15
  45    3.9946444600604e-16
  46    -4.5125590095287e-17
  47    1.9529160748097e-15
  48    -1.4261125457648e-15
  49    -1.5603398588457e-15
  50      0.22650518598335
  51    9.753445826688e-15
  52    -1.8321502178355e-14
  53      0.53975405634006
  54    3.0524970669044e-15
  55    8.2964542498026e-15
  56    8.0938249757656e-16
  57    2.0472528264482e-15
  58    -2.8576363243109e-14
  59    -1.5034321532332e-15
  60    1.7494990371107e-15
  61     -0.10546621390082
  62    -5.8413551420402e-15
  63    -4.8030216717334e-15
  64     -0.27032398263715
  65    9.4480755492672e-16
  66    2.5886834114936e-15
  67    2.007068071667e-16
  68    -4.5597631421442e-16
  69    1.6528535075381e-15
  70    -2.7518956676049e-15
  71    -2.9076968578872e-15
  72     -0.10546750246391
  73    -1.7723955015457e-14
  74    -5.8736577702216e-16
  75     -0.27032698523189
  76    4.8891583955571e-16
  77    3.1826702075805e-17
  78    -1.4334239729279e-15
  79    3.153809288521e-16
  80    1.9430456065533e-14
  81    5.4287815104075e-16
  82    1.0059749826035e-15
  83      0.22650577665191
  84    -4.699421126819e-15
  85    5.7281009996673e-16
  86       0.5397554607108
  87    -1.8820719596405e-15
  88    -2.2758567362052e-15
 Sym= A
 Ene=               6
 Spin= Alpha
 Occup=    1.00000
   1    -1.7942771007731e-16
   2    -4.8282523642303e-16
   3    1.8161194688643e-15
   4    -1.3153814117774e-16
   5    5.5763756404898e-16
   6       0.1054675320948
   7    5.0748132031031e-15
   8    3.8779901191496e-15
   9       0.2703270832456
  10    -7.2779848997985e-16
  11    -2.3989794969196e-15
  12    2.2956112775576e-16
  13    1.3625432479701e-15
  14    -1.2758230057557e-14
  15    3.4520240428113e-16
  16    3.575653722089e-16
  17     -0.22650580145101
  18    -1.0911555531572e-14
  19    -1.134560795416e-14
  20     -0.53975556210252
  21    -1.0360253878708e-15
  22    -3.2843927315013e-15
  23    -7.2189146826112e-16
  24    -1.3825996501191e-15
  25    2.1882350987724e-14
  26    -4.825016933432e-16
  27    1.3692729050704e-15
  28      0.22650517031219
  29    -7.1587792889325e-15
  30    -5.4024240913911e-15
  31      0.53975394202777
  32    -8.238788889348e-16
  33    -1.0782744479109e-16
  34    -3.9850167163917e-16
  35    -4.7939366854785e-16
  36    3.3899545865243e-15
  37    -1.3605365747481e-15
  38    -1.9024074525694e-15
  39     -0.10546617900225
  40    1.0154291142964e-14
  41    -7.1975425845147e-16
  42     -0.27032388703336
  43    -8.9136497350637e-16
  44    -2.4106367459521e-16
  45    5.1581415064514e-17
  46    1.1865024239798e-16
  47    1.4233889091186e-15
  48    8.7684392492582e-16
  49    5.6343274285667e-16
  50     -0.10546751253736
  51    4.0196645804205e-15
  52    5.1660363868732e-15
  53     -0.27032706480208
  54    -9.842667341052e-16
  55    -2.1488810513354e-15
  56    -5.4459649147445e-16
  57    -1.1893069819462e-15
  58    1.2223672036574e-14
  59    4.0885792876699e-16
  60    3.506052083502e-16
  61        0.226505791241
  62    9.9474161633539e-15
  63    -1.0175755070385e-14
  64      0.53975553355043
  65    -2.3090025992026e-15
  66    -7.487364773221e-15
  67    2.7477465695076e-16
  68    1.9093601429245e-15
  69    -1.2497351997921e-14
  70    7.497935296395e-16
  71    -2.5306014522523e-16
  72      -0.2265051805225
  73    2.0151256379447e-16
  74    1.2771030901691e-14
  75     -0.53975397058094
  76    -1.1916074110318e-15
  77    -4.4196213200136e-15
  78    4.3904656337177e-16
  79    -1.6901167945379e-15
  80    9.4768976652035e-15
  81    5.6605419859331e-16
  82    -2.2321151284551e-16
  83      0.10546619855993
  84    -4.3622508395604e-15
  85    3.820470201895e-15
  86      0.27032390547809
  87    5.1939919805639e-16
  88    6.4795689525195e-16
 Sym= A
 Ene=               7
 Spin= Alpha
 Occup=    1.00000
   1    -1.0828116950975e-16
   2    -7.5481947483306e-16
   3    -1.0672635232447e-14
   4    1.6777221208537e-15
   5    -6.1259930928543e-17
   6        0.146467437151
   7    -1.0163632315488e-14
   8    9.8949785103734e-15
   9      0.57648230679801
  10    -8.6610080346422e-16
  11    -6.7033892339895e-15
  12    3.1647512174543e-15
  13    6.4304907069992e-16
  14    -2.2452206759103e-14
  15    -3.3226810616064e-15
  16    4.0329268000151e-15
  17     -0.14646741688716
  18    -2.0190195313264e-14
  19    9.4110069319792e-15
  20     -0.57648226996283
  21    4.9801135627727e-15
  22    8.9466626862761e-15
  23    -1.3938006081377e-15
  24    4.6428878872951e-16
  25    -1.4429557452438e-15
  26    -4.3001564774207e-15
  27    1.3568752504679e-15
  28      0.14646738858969
  29    -2.9553675841853e-14
  30    1.0364432967418e-14
  31      0.57648218753625
  32    -2.7445610670758e-15
  33    -5.4556111078922e-15
  34    -2.1206653150732e-15
  35    -3.2985844067309e-15
  36    4.4268673459493e-14
  37    -2.5271085727269e-16
  38    -3.0305128951128e-15
  39     -0.14646736178071
  40    -1.7923420613994e-14
  41    8.0196517319646e-15
  42     -0.57648215901742
  43    -2.6476938339602e-15
  44    -1.6137589948827e-15
  45    3.8218559614121e-17
  46    1.2071064479979e-16
  47    1.2989859107171e-14
  48    -3.1154465323561e-16
  49    1.2542536277827e-16
  50      0.14646736178068
  51    1.9885457659261e-14
  52    -3.7321800249358e-15
  53      0.57648215901746
  54    -3.4905556201259e-16
  55    3.1446404846103e-15
  56    -2.5184466727994e-15
  57    5.9286297325874e-16
  58    7.1040611118747e-15
  59    3.1790510299559e-15
  60    -2.0475845668591e-15
  61     -0.14646738858971
  62    1.5693686229989e-14
  63    -2.3738714057598e-14
  64     -0.57648218753615
  65    -5.7733180766704e-15
  66    -1.3473056529727e-14
  67    1.175834687342e-15
  68    -7.5256672871519e-16
  69    5.7987137845014e-15
  70    3.3239355871025e-15
  71    -1.9665381147095e-15
  72       0.1464674168871
  73    1.5162497203704e-14
  74    -8.7369712405611e-15
  75      0.57648226996281
  76    2.0754833316281e-15
  77    4.0195269708749e-15
  78    1.7537515895919e-15
  79    1.1143348924733e-15
  80    -2.634043371194e-14
  81    5.3902388832948e-16
  82    2.4698443513732e-15
  83     -0.14646743715103
  84    1.8616096080547e-14
  85    3.8374090379239e-16
  86     -0.57648230679792
  87    2.5890481867492e-15
  88    3.1299013827723e-15
