[Molden Format]
made by pyscf v[2.7.0]
[Atoms] (AU)
Ni   1   28     0.00000000000000     0.00000000000000     0.00000000000000
Ni   2   28     7.88015793943631     7.88015793943631     7.88015793943631
O   3   8     3.94007896971815     3.94007896971815     3.94007896971815
O   4   8    11.82023690915446    11.82023690915446    11.82023690915446
[GTO]
1 0
 s    8 1.00
          351535.72935  0.00023900118713546
          52695.809283  0.0018531440897204
          11992.468293  0.0096377482811891
          3394.5776689   0.039188295615695
          1105.3594585     0.1276492017934
          397.14677769    0.30336594963671
          154.27542974    0.43476507060194
           61.01872378    0.22936084921559
 s    4 1.00
          384.45559739  -0.024956057234426
          119.04879199   -0.11802646093842
          19.137012223    0.55542443479614
          8.1526718562    0.53290870398319
 s    2 1.00
          12.579408642   -0.37808523533197
          2.0870866081     1.1725666802369
 s    1 1.00
         0.86432568555                   1
 s    1 1.00
         0.13283169217                   1
 p    6 1.00
          1883.0907486  0.0026859082409862
           445.9515532   0.021816215326601
          143.08430815    0.10260154127892
          53.372920722    0.29610961202189
          21.321919357    0.47851295906874
          8.6643561994    0.27869541549053
 p    3 1.00
          34.144255211  -0.020736702335551
          4.7122455921    0.38861896640776
          1.8709231845    0.67329366995873
 p    1 1.00
         0.70370016267                   1
 p    1 1.00
              0.146588                   1
 d    4 1.00
          74.591603465   0.019859142269269
          21.590632752     0.1227271844904
           7.624614258    0.38208583108419
          2.8632206762    0.64198425524228
 d    1 1.00
          1.0311063388                   1
 d    1 1.00
         0.33060760691                   1
 d    1 1.00
                 0.106                   1
 f    1 1.00
                 2.174                   1

2 0
 s    8 1.00
          351535.72935  0.00023900118713546
          52695.809283  0.0018531440897204
          11992.468293  0.0096377482811891
          3394.5776689   0.039188295615695
          1105.3594585     0.1276492017934
          397.14677769    0.30336594963671
          154.27542974    0.43476507060194
           61.01872378    0.22936084921559
 s    4 1.00
          384.45559739  -0.024956057234426
          119.04879199   -0.11802646093842
          19.137012223    0.55542443479614
          8.1526718562    0.53290870398319
 s    2 1.00
          12.579408642   -0.37808523533197
          2.0870866081     1.1725666802369
 s    1 1.00
         0.86432568555                   1
 s    1 1.00
         0.13283169217                   1
 p    6 1.00
          1883.0907486  0.0026859082409862
           445.9515532   0.021816215326601
          143.08430815    0.10260154127892
          53.372920722    0.29610961202189
          21.321919357    0.47851295906874
          8.6643561994    0.27869541549053
 p    3 1.00
          34.144255211  -0.020736702335551
          4.7122455921    0.38861896640776
          1.8709231845    0.67329366995873
 p    1 1.00
         0.70370016267                   1
 p    1 1.00
              0.146588                   1
 d    4 1.00
          74.591603465   0.019859142269269
          21.590632752     0.1227271844904
           7.624614258    0.38208583108419
          2.8632206762    0.64198425524228
 d    1 1.00
          1.0311063388                   1
 d    1 1.00
         0.33060760691                   1
 d    1 1.00
                 0.106                   1
 f    1 1.00
                 2.174                   1

3 0
 s    6 1.00
          27032.382631  0.00057227335211155
          4052.3871392  0.0044353233492995
           922.3272271   0.023020107706038
          261.24070989   0.092822490667928
          85.354641351    0.29378500009671
          31.035035245    0.67401604501641
 s    2 1.00
          12.260860728    0.63839937025506
          4.9987076005    0.39534587125718
 s    1 1.00
          1.1703108158                   1
 s    1 1.00
         0.46474740994                   1
 s    1 1.00
         0.18504536357                   1
 p    4 1.00
          63.274954801   0.012018332222616
          14.627049379   0.083005421790056
          4.4501223456    0.31991743925964
          1.5275799647    0.70715542916104
 p    1 1.00
         0.52935117943                   1
 p    1 1.00
          0.1747842127                   1
 d    1 1.00
                 2.314                   1
 d    1 1.00
                 0.645                   1
 f    1 1.00
                 1.428                   1

4 0
 s    6 1.00
          27032.382631  0.00057227335211155
          4052.3871392  0.0044353233492995
           922.3272271   0.023020107706038
          261.24070989   0.092822490667928
          85.354641351    0.29378500009671
          31.035035245    0.67401604501641
 s    2 1.00
          12.260860728    0.63839937025506
          4.9987076005    0.39534587125718
 s    1 1.00
          1.1703108158                   1
 s    1 1.00
         0.46474740994                   1
 s    1 1.00
         0.18504536357                   1
 p    4 1.00
          63.274954801   0.012018332222616
          14.627049379   0.083005421790056
          4.4501223456    0.31991743925964
          1.5275799647    0.70715542916104
 p    1 1.00
         0.52935117943                   1
 p    1 1.00
          0.1747842127                   1
 d    1 1.00
                 2.314                   1
 d    1 1.00
                 0.645                   1
 f    1 1.00
                 1.428                   1

[5d]
[7f]
[9g]

[MO]
 Sym= A
 Ene=               0
 Spin= Alpha
 Occup=    1.00000
   1    -3.9360006354537e-08
   2    1.3500172393119e-07
   3    -2.8427747612283e-07
   4    -3.4429118010802e-07
   5    6.7001474291664e-07
   6    -7.7940275311625e-08
   7    -7.7136579663916e-08
   8    1.0863410831605e-07
   9    2.5334093559427e-07
  10    2.5020029461779e-07
  11    -3.9455487292827e-07
  12    -1.6618693345035e-07
  13    -1.6341303783822e-07
  14    3.1249524915117e-07
  15    -7.9640222344226e-08
  16    -8.2352275656124e-08
  17    -2.2416015772207e-07
  18    -0.059968298640025
  19     -0.17185592849637
  20     -0.17436537059601
  21    0.00025078393035835
  22      0.34622832734654
  23     -0.03729205872647
  24     -0.11061064345417
  25     -0.11222578364569
  26    0.00015593963553909
  27      0.22284074555905
  28    -0.031618000472271
  29    -0.073365290062972
  30    -0.074436595810706
  31    0.00013221000789298
  32       0.1478048946056
  33      0.12153928057093
  34    0.0059869777859174
  35    0.0060732017282674
  36    -0.0005070097893002
  37    -0.012060949371194
  38    1.7475758528667e-08
  39    -1.5343871687324e-07
  40    -1.5430515855366e-07
  41    1.1625798655314e-09
  42    -6.4761838441871e-08
  43    -1.1540100015648e-07
  44    1.161708423933e-07
  45    4.1686880751753e-08
  46    -1.4240757175304e-07
  47    3.0100449128425e-07
  48    3.686271610113e-07
  49    -6.4716773531324e-07
  50    -9.9468133097385e-09
  51    -9.8918945730139e-09
  52    2.6633495931406e-08
  53    4.1397212393802e-08
  54    4.0720662757316e-08
  55    -1.3974311896568e-07
  56    3.3608464216258e-07
  57    3.3237778217534e-07
  58    -5.3829084909461e-07
  59    -1.2451983445213e-06
  60    -1.2267944978577e-06
  61    3.2606621866038e-06
  62    -0.060297660562173
  63     -0.17217754213433
  64     -0.17469302448367
  65    0.00025262794363338
  66      0.34687143912016
  67     -0.03751021899786
  68     -0.11081461619152
  69      -0.1124335934295
  70    0.00015716788647616
  71      0.22324866496484
  72    -0.031814566106797
  73     -0.07349878306238
  74    -0.074572562109955
  75    0.00013331211547127
  76      0.14807200375818
  77      0.12418413857155
  78    0.0066127382976994
  79    0.0067105454946703
  80    -0.0005215807615705
  81    -0.013323905119487
  82    9.6490167182013e-08
  83    3.1291486441404e-07
  84    3.1355148478211e-07
  85    -1.5007803678702e-09
  86    4.0693549960111e-08
  87    1.2475189284878e-07
  88    -1.2661641621209e-07
  89    -2.6229866867584e-08
  90    -5.9596870187356e-08
  91    2.755121003347e-09
  92    7.1726059741262e-07
  93    -1.0917429242762e-06
  94    -4.8468908685359e-05
  95    -4.7338373373787e-05
  96    9.7625425437017e-05
  97    -4.0571474250166e-05
  98    -3.9619275640045e-05
  99    8.1985236805865e-05
 100    -0.0002377632664604
 101    -0.00023297041532529
 102    0.00047202986828888
 103    -0.00015074236599342
 104    0.00076340029918911
 105    0.00077454960702907
 106    6.3119608271733e-07
 107    -0.0015379015146497
 108    -0.0019451901613089
 109    0.0034232288501504
 110    0.0034732321134853
 111    8.1414014611056e-06
 112    -0.0068969209732128
 113    6.1585237193901e-07
 114    -2.5090050374853e-07
 115    -2.5749188669141e-07
 116    3.3844905077047e-09
 117    1.3850270139539e-08
 118    -6.0553196831402e-07
 119    6.0260609997639e-07
 120    1.1225628726831e-08
 121    2.8259771135706e-08
 122    -1.2235596524619e-09
 123    -4.0752103518162e-07
 124    8.1742864732758e-07
 125    4.9655627630938e-05
 126    4.8510938029247e-05
 127    -9.9484540866072e-05
 128    4.1941888749537e-05
 129    4.097336700948e-05
 130    -8.4202341146266e-05
 131    0.00023904042175385
 132    0.00023423220952669
 133    -0.00047344491399125
 134    -0.00015111834965422
 135    0.0007634475756663
 136    0.00077459926154557
 137    6.3238896235879e-07
 138    -0.0015381104969872
 139    -0.0019434541848874
 140    0.0034229367351156
 141    0.0034729278954135
 142    8.135777103792e-06
 143    -0.0068956259580111
 144    -8.5319020199472e-07
 145    1.1257750420731e-07
 146    1.1972486158061e-07
 147    -3.3175260980016e-09
 148    2.0269999696408e-08
 149    5.9635611789572e-07
 150    -5.9230296118546e-07
 Sym= A
 Ene=               1
 Spin= Alpha
 Occup=    1.00000
   1    6.0582673591311e-09
   2    -2.0626693722839e-08
   3    4.3915363914793e-08
   4    5.3247791512862e-08
   5    -1.0162831675514e-07
   6    9.5253203051016e-08
   7    -9.5903978208762e-08
   8    4.4404832886602e-10
   9    -3.710802267243e-07
  10    3.7319530330509e-07
  11    -1.5980621217359e-09
  12    3.3387606240128e-07
  13    -3.352397048887e-07
  14    1.2949942891369e-09
  15    -3.5816224926958e-07
  16    3.5715083051413e-07
  17    -1.2610270304907e-09
  18    -0.0002514211442178
  19     -0.30056252363583
  20      0.29911257404807
  21    -0.059965607387586
  22     0.001449471597176
  23    -0.00015637328913507
  24      -0.1934492416639
  25      0.19251602277737
  26    -0.037290066790251
  27    0.00093291111165998
  28    -0.00013258776125347
  29     -0.12830993256092
  30       0.1276909790429
  31    -0.031615724828778
  32    0.00061876831792308
  33    0.00051114314736811
  34     0.010445941171604
  35    -0.010394446727229
  36       0.1214841959142
  37    -5.1488167726097e-05
  38    7.261930600055e-11
  39    -9.8553299142694e-08
  40    9.7254732709828e-08
  41    -2.7505223276172e-07
  42    -2.9917811971523e-10
  43    -9.3153141372178e-08
  44    -9.2185894238521e-08
  45    -6.0453871821714e-09
  46    2.0593478320188e-08
  47    -4.3808747005047e-08
  48    -5.3239484550105e-08
  49    1.0239047827654e-07
  50    6.0144779924965e-09
  51    -6.0947282185025e-09
  52    9.9768581099714e-11
  53    -7.7026934315866e-08
  54    7.7362667917737e-08
  55    -5.3187995915777e-10
  56    -4.4274778142921e-07
  57    4.4556203277199e-07
  58    -2.2554226518631e-09
  59    2.1820675184554e-06
  60    -2.1923804558661e-06
  61    1.3412183261498e-08
  62    -0.00025198375937496
  63     -0.30112762572533
  64       0.2996764562776
  65    -0.060301965900729
  66    0.0014516856506749
  67    -0.00015673183047321
  68     -0.19380763050695
  69       0.1928736443075
  70    -0.037512985760462
  71    0.00093431721405713
  72    -0.00013292303458385
  73     -0.12854503014269
  74      0.12792552844218
  75     -0.03181805401106
  76    0.00061970494798901
  77    0.00051737400738332
  78     0.011590444630192
  79    -0.011535690791756
  80      0.12424471774247
  81    -5.4767596557041e-05
  82    4.1713004729704e-10
  83    8.5043910378961e-08
  84    -8.24093645317e-08
  85    3.6350675747564e-07
  86    1.6347523306244e-10
  87    2.2121177199442e-07
  88    2.2017419518705e-07
  89    -1.1749555034425e-10
  90    -2.5956297403313e-10
  91    -9.5249015814348e-11
  92    3.6307097953103e-09
  93    -5.5868009966528e-09
  94    8.6925255086478e-05
  95    -8.7173436588074e-05
  96    1.1228076232661e-08
  97    7.3006887981755e-05
  98    -7.3236806312396e-05
  99    -3.8183672612657e-09
 100    0.00042477740842758
 101    -0.00042577378720565
 102    8.9028953677642e-07
 103    -6.3096977247814e-07
 104     0.001335027778787
 105    -0.0013285902819871
 106    -0.00015079435275044
 107    -6.4372967256478e-06
 108    -8.1420411059611e-06
 109    0.0059874621061939
 110    -0.0059585951711201
 111    -0.0019450123236436
 112    -2.8868980951414e-05
 113    6.5480411387151e-10
 114    -6.0763813211454e-07
 115    6.0696660438171e-07
 116    -6.1922037501257e-07
 117    5.7389097521485e-10
 118    2.4878625253281e-07
 119    2.5304283096634e-07
 120    4.5631211130623e-11
 121    1.1787558207082e-10
 122    -3.9441408716508e-11
 123    -1.5295099288666e-09
 124    3.1520644232751e-09
 125    -8.8582221835696e-05
 126    8.8840263151597e-05
 127    -1.8777612659227e-08
 128    -7.4884215594428e-05
 129    7.5125565075593e-05
 130    -5.318626851436e-09
 131    -0.00042662067482559
 132    0.00042762748789336
 133    -8.9602866980287e-07
 134    -6.3252558202943e-07
 135    0.0013353161549771
 136    -0.0013288782474048
 137    -0.00015107885330549
 138    -6.4381833180298e-06
 139    -8.1348527253791e-06
 140    0.0059859966050708
 141    -0.0059571321660385
 142    -0.001943671183095
 143    -2.8863510941249e-05
 144    -1.5258764570337e-09
 145    6.5948417130686e-07
 146    -6.5996320273683e-07
 147    5.8874226654016e-07
 148    -4.0467226967923e-10
 149    -3.9631263595047e-07
 150     -4.0049329047e-07
 Sym= A
 Ene=               2
 Spin= Alpha
 Occup=    1.00000
   1    0.0004684838896217
   2    -0.0023630242780679
   3     0.001921246433874
   4    0.0068703039621097
   5    0.0011955811964958
   6    -1.7380641277945e-07
   7    -1.7380160075474e-07
   8    -1.882816986165e-07
   9    4.8151811311059e-07
  10    4.8148104236125e-07
  11    5.3143399387774e-07
  12    6.0329820574701e-07
  13    6.0335859715318e-07
  14    4.1841425849927e-07
  15    -5.1138675214051e-06
  16    -5.1140170826323e-06
  17    -4.6342027921958e-06
  18    -5.1584077129102e-06
  19      0.24527675008343
  20      0.24527333038439
  21    1.1889621940042e-06
  22      0.24528911235089
  23    -3.6248526388075e-06
  24      0.15900276719061
  25      0.15900058107239
  26    7.9790035835414e-07
  27      0.15901050517109
  28    -3.1267015414005e-06
  29      0.10538205162022
  30      0.10538068656804
  31    6.7559145094237e-07
  32      0.10538690379408
  33    3.9141942471232e-05
  34    5.7935210245656e-05
  35    6.3357181159011e-05
  36    -7.14332610946e-06
  37    3.3925296822543e-05
  38    2.2217204154077e-07
  39    -1.0195412911414e-07
  40    -1.0199982186891e-07
  41    -1.1848743706407e-11
  42    5.0750820592763e-08
  43    2.1362552562282e-07
  44    -2.1362681632368e-07
  45    0.00046184146224837
  46    -0.002340810946397
  47    0.0018723311924591
  48    0.0068137346151115
  49    0.0013010540758043
  50    3.2520765807639e-09
  51    3.2553494699467e-09
  52    -6.3603272124847e-10
  53    2.0633780102011e-07
  54    2.0632573533689e-07
  55    1.7765200706137e-07
  56    -4.1974733730517e-07
  57    -4.1980451232734e-07
  58    -1.5441331809126e-07
  59    4.8660077530265e-07
  60    4.868411142472e-07
  61    -7.7389114788659e-07
  62    8.668764589527e-06
  63      0.24550309891591
  64      0.24550650519569
  65    -1.1886674237127e-06
  66      0.24548593409566
  67    5.7229612518972e-06
  68      0.15914576125682
  69      0.15914793868101
  70    -7.9773717377718e-07
  71      0.15913470863644
  72    4.8066318513798e-06
  73      0.10547366778518
  74      0.10547502726844
  75    -6.7533308509282e-07
  76      0.10546679750228
  77    -4.2317158538197e-05
  78    4.1503754891453e-05
  79    3.608167073265e-05
  80    7.1405623654486e-06
  81    6.5377508185999e-05
  82    -4.3499436658818e-07
  83    2.5606311010013e-07
  84    2.5603444948204e-07
  85    -3.1365366237468e-11
  86    4.7946857304367e-07
  87    -3.9710703145248e-07
  88    3.9710138377636e-07
  89    -0.0015433114919438
  90    -0.0034748876610667
  91    0.00066305189031911
  92     0.031541410913344
  93    -0.026892420797463
  94    -4.0640044125636e-05
  95    -4.1978148870497e-05
  96    -4.847445842638e-05
  97    -4.005289090425e-05
  98    -4.1175445812246e-05
  99    -4.6621574185633e-05
 100    -1.0818938910809e-05
 101    -1.5823241668711e-05
 102    -3.888148517836e-05
 103    -4.8840404521253e-08
 104    -0.0011287684884003
 105    -0.0011287684620198
 106    -1.1147947690839e-11
 107    -0.001128762945274
 108    2.7190424036307e-07
 109    -0.0048806084938602
 110    -0.0048806083311747
 111    5.664289209114e-11
 112    -0.0048805602103864
 113    -2.6211693167144e-07
 114    1.5293937879871e-07
 115    1.609278896118e-07
 116    -3.5558686857637e-09
 117    3.6909184933521e-08
 118    -2.0871611271537e-07
 119    2.1269105558136e-07
 120    -0.0015431829720441
 121    -0.0034743407952222
 122    0.00066098060816228
 123     0.031540127161541
 124    -0.026879692855631
 125    4.3081228299162e-05
 126    4.4419090731579e-05
 127    5.0870914898318e-05
 128    4.3588141164922e-05
 129    4.4710234688931e-05
 130    5.0160897385191e-05
 131    1.0506166247141e-05
 132    1.5510357230492e-05
 133    3.8019778338921e-05
 134    6.8239329016905e-08
 135    -0.0011282012910005
 136    -0.0011282012519946
 137     7.13716710515e-12
 138    -0.0011281861846679
 139    -2.0474872622974e-07
 140    -0.0048830684280878
 141    -0.004883068326098
 142    -2.8626165023485e-11
 143    -0.0048830111393426
 144    6.9346093336696e-07
 145    -4.0730633247137e-07
 146    -4.1523943458495e-07
 147    3.6452082961531e-09
 148    -4.6862509190924e-07
 149    4.614120970191e-07
 150    -4.6545738857832e-07
 Sym= A
 Ene=               3
 Spin= Alpha
 Occup=    1.00000
   1    -3.3478733126415e-09
   2    1.6682105446325e-08
   3    -1.4114260121116e-08
   4    -4.7378465179099e-08
   5    -7.4997281093725e-09
   6    1.1820467264873e-07
   7    -1.1828946769645e-07
   8    1.7961647217052e-11
   9    -2.3341135906717e-07
  10    2.3358229294089e-07
  11    -5.8597868265676e-11
  12    -1.7217449279836e-07
  13    1.7248428885345e-07
  14    1.2205369709446e-10
  15    -3.1861510672567e-06
  16    3.1859975296716e-06
  17    -1.7376946436523e-09
  18    5.4438787658422e-05
  19      0.25527308062877
  20     -0.25518472289227
  21      0.17274436743119
  22    -9.3340802469692e-05
  23    3.6526433805813e-05
  24      0.16326222010478
  25     -0.16320573836165
  26      0.11584274667915
  27    -5.9712417004351e-05
  28    3.0540750765917e-05
  29      0.10212057148179
  30     -0.10208543191185
  31     0.097470710671134
  32    -3.7284459721856e-05
  33    -0.0003078193809059
  34     -0.38511524645409
  35      0.38498069404578
  36      -1.0114898008723
  37    0.00013454926748079
  38    1.0520021559349e-11
  39    1.1008645836704e-07
  40    -1.0992256430414e-07
  41    3.6938769167129e-07
  42    4.4714973864687e-11
  43    1.6208294912751e-07
  44    1.6199329982182e-07
  45    -3.2794877511864e-09
  46    1.6454907196583e-08
  47    -1.3607447204612e-08
  48    -4.6783001839221e-08
  49    -8.4882461545699e-09
  50    1.4493879102527e-07
  51    -1.4499483624835e-07
  52    2.3680550881849e-11
  53    -5.8837142470893e-07
  54    5.885816335279e-07
  55    -1.4073672152722e-10
  56    3.2969307143485e-07
  57    -3.2969966993276e-07
  58    3.0693053920711e-10
  59    -3.1594401429579e-06
  60    3.1602324079683e-06
  61    -2.1431351893824e-09
  62    -5.3643887500593e-05
  63     -0.25464507933545
  64      0.25454922151125
  65     -0.17266652200578
  66    9.0868181429525e-05
  67    -3.5979047986995e-05
  68     -0.16285510880449
  69      0.16279376300762
  70     -0.11579499094493
  71    5.8110969291314e-05
  72    -3.0106537063465e-05
  73     -0.10185428592401
  74      0.10181590997776
  75    -0.097431070027764
  76    3.622811552408e-05
  77    0.00030826417915025
  78      0.38510276348688
  79     -0.38496829430249
  80       1.0112357478133
  81    -0.0001344702802439
  82    5.5461930125994e-11
  83    9.6761603511115e-08
  84    -9.6518222757449e-08
  85    4.422940517008e-07
  86    2.6035928151781e-12
  87    2.6753094115194e-07
  88    2.6744995850459e-07
  89    1.0632731275734e-08
  90    2.3983468952363e-08
  91    -5.5198060296786e-09
  92    -2.1380668760538e-07
  93    1.811345409948e-07
  94     0.095093012151316
  95    -0.095127377989802
  96    3.4367798034125e-05
  97     0.079814361566006
  98    -0.079843199642573
  99    2.8839715452901e-05
 100      0.35381648052151
 101      -0.3539421504238
 102    0.00012567007661933
 103    5.6895922645548e-09
 104    -1.4688558069204e-06
 105     1.48702502509e-06
 106    -1.2744607716202e-07
 107    4.7973979250829e-09
 108    1.553221704205e-08
 109    -6.2594251473347e-06
 110    6.3385128614827e-06
 111    1.7164534151411e-06
 112    2.0313770859274e-08
 113    2.1265557783952e-07
 114    -0.00057749760982683
 115    0.00057739535036241
 116    -0.0005447386653745
 117    5.2393496808331e-11
 118    0.00030036687667757
 119    0.00030071517341922
 120    1.0631046680075e-08
 121    2.4028596561044e-08
 122    -5.6257674607143e-09
 123    -2.1386975078332e-07
 124    1.8159323736649e-07
 125    -0.095098429179886
 126     0.095132797492061
 127    -3.4369236291777e-05
 128     -0.07981701492931
 129     0.079845854000598
 130    -2.8840622220173e-05
 131     -0.35383059411668
 132      0.35395626974257
 133    -0.00012567416214389
 134    5.6959022028038e-09
 135    -1.4465771717137e-06
 136    1.4647323446442e-06
 137    -1.2716242358537e-07
 138    4.8429710061313e-09
 139    1.5332701628745e-08
 140    -6.0767087450422e-06
 141    6.1559715067291e-06
 142    9.0925678076755e-07
 143    2.0051775996728e-08
 144    -2.1269814730659e-07
 145    0.00057752366903631
 146    -0.00057742092984635
 147    0.00054547917557326
 148    6.1820933843024e-11
 149    -0.00030010559829961
 150    -0.00030045408952197
 Sym= A
 Ene=               4
 Spin= Alpha
 Occup=    1.00000
   1    1.1117151752556e-08
   2    -7.0537190275353e-08
   3    1.7809674221492e-08
   4    1.9215497158546e-07
   5    3.7603231537939e-07
   6    -6.7800691815109e-08
   7    -6.7734241616252e-08
   8    3.4255056515475e-08
   9    1.4090231091428e-07
  10    1.408046120104e-07
  11    -3.1159687117035e-08
  12    2.1712736864251e-07
  13    2.1691797742542e-07
  14    1.092156210359e-07
  15    7.2113604165217e-07
  16    7.1957922588232e-07
  17    -4.2636520752422e-06
  18      0.17274585086653
  19      0.14728247878147
  20      0.14744332529986
  21    -5.4072324093962e-05
  22     -0.29469688766496
  23       0.1158446857615
  24     0.094196190015315
  25     0.094299057155012
  26    -3.6246941555879e-05
  27     -0.18847638942597
  28     0.097461501348362
  29     0.058917012759427
  30     0.058981515942286
  31    -3.0660173832631e-05
  32     -0.11788620145452
  33      -1.0109827174286
  34     -0.22204510259617
  35     -0.22229282168305
  36    0.00032382401976143
  37       0.4443379192287
  38    2.6099586462743e-08
  39    2.4416759793149e-07
  40    2.4428218960448e-07
  41    -1.2401535422149e-10
  42    6.0457374288859e-08
  43    1.4608282020332e-07
  44    -1.4617671419151e-07
  45    2.7258207267516e-08
  46    -1.2213228717337e-07
  47    1.423579196972e-07
  48    3.6039866136914e-07
  49    -3.2000434714574e-07
  50    -8.2915212085296e-08
  51    -8.2829594419331e-08
  52    6.8468660340132e-08
  53    3.0151401183136e-07
  54    3.0113497590253e-07
  55    -4.521984105739e-07
  56    2.6385819651633e-08
  57    2.6699497343877e-08
  58      7.5908712097e-07
  59    6.6817258670504e-07
  60    6.660461504288e-07
  61    -4.5339701187793e-06
  62      -0.1726644269919
  63     -0.14690601059471
  64     -0.14706422913812
  65    5.4013424978877e-05
  66       0.2939984808174
  67     -0.11579431210161
  68    -0.093952099603775
  69    -0.094053272445111
  70    3.6216997511274e-05
  71      0.18802361532556
  72    -0.097419995093625
  73    -0.058757236347511
  74    -0.058820610532104
  75    3.0614604820567e-05
  76      0.11759019810967
  77       1.0107343528833
  78      0.22203773671684
  79      0.22228536515601
  80    -0.0003233419304437
  81     -0.44432326176944
  82    1.1632078725963e-07
  83    3.6232129747636e-07
  84    3.6231817548234e-07
  85    -1.2027766319517e-10
  86    3.9886603072091e-08
  87    1.6063783702531e-07
  88    -1.608277920077e-07
  89    -5.485381952189e-08
  90    -1.3385621120375e-07
  91    8.2821837794328e-09
  92    1.2059206582315e-06
  93    -8.756381937587e-07
  94    -0.054942004761607
  95     -0.05488248367096
  96      0.10982582536601
  97    -0.046114411569395
  98    -0.046064446666883
  99     0.092179313736076
 100      -0.2043600337808
 101     -0.20413533954562
 102      0.40849716690209
 103    -1.1152026831857e-07
 104    -8.6553357783918e-07
 105    -8.7104613987894e-07
 106    4.2758779286375e-10
 107    1.6448894604595e-06
 108    1.8379950070717e-06
 109    -3.8320415160859e-06
 110    -3.8570081175517e-06
 111    -3.5471908726298e-09
 112    6.867032961725e-06
 113    0.00068246657642204
 114    -0.0001636509077966
 115    -0.0001640134547884
 116    1.7090088676016e-07
 117    1.114519861976e-07
 118    -0.00055874348049048
 119    0.0005585546513618
 120    -6.7885245058367e-08
 121    -1.4352186113393e-07
 122    6.2931350807722e-08
 123    1.2284128143251e-06
 124    -1.1542351578246e-06
 125     0.054944898542106
 126     0.054885374238711
 127     -0.10982943541505
 128     0.046115421966658
 129     0.046065455219913
 130    -0.092180989277474
 131       0.2043670341139
 132      0.20414233195054
 133     -0.40850765725021
 134    -7.1103119409421e-08
 135    -8.7651908051368e-07
 136    -8.82122086598e-07
 137    4.0453856106973e-10
 138    1.5904133722808e-06
 139    8.9676974428894e-07
 140    -3.569997940122e-06
 141    -3.594193361661e-06
 142    -3.2737574864536e-09
 143    6.8209155026572e-06
 144    -0.0006825519890659
 145    0.00016441266648053
 146    0.00016477525972239
 147    -1.7119399319402e-07
 148    1.2622829772532e-07
 149    0.00055914942576733
 150    -0.00055896074497955
 Sym= A
 Ene=               5
 Spin= Alpha
 Occup=    1.00000
   1    0.0070501721439016
   2    -0.023774795142449
   3     0.051569588235196
   4     0.061577292632629
   5     -0.11981093078192
   6    8.3920642728405e-08
   7    8.3904660270596e-08
   8    2.2409096275713e-07
   9    -3.6667046435573e-07
  10    -3.6660877735637e-07
  11    -7.9037042440634e-07
  12    2.8456095800226e-07
  13    2.8450807188496e-07
  14    6.9535351676661e-07
  15    3.0885701230591e-06
  16    3.0893566593761e-06
  17    -8.4774692873826e-07
  18    -1.0053737359694e-06
  19     -0.22240686685749
  20     -0.22240734299896
  21    3.7960491076905e-08
  22     -0.22240451052409
  23    -5.0323688776223e-07
  24      -0.1431403894391
  25     -0.14314069528863
  26    2.197589187708e-08
  27     -0.14313872123628
  28    -3.6136843019363e-07
  29    -0.088760172484999
  30    -0.088760391304254
  31    3.0729294785842e-08
  32    -0.088759209945305
  33    -4.3416131572382e-06
  34    0.0013845914646761
  35    0.0013852117076239
  36    -7.2777561499482e-07
  37    0.0013890210696159
  38    -2.5981657638318e-07
  39    1.5255051868647e-07
  40    1.5260155303316e-07
  41    9.7192074501192e-12
  42    3.5949035074095e-08
  43    -2.8207649012245e-07
  44    2.8208374939263e-07
  45    -0.0070505440536559
  46     0.023776811846703
  47    -0.051570779693327
  48    -0.061582522856544
  49       0.1198024615782
  50    1.0198719274982e-07
  51    1.0193991246079e-07
  52    2.3985854707775e-07
  53    -1.2165514267569e-07
  54    -1.2152403110723e-07
  55    -5.3979339222936e-07
  56    -2.9107810064496e-07
  57    -2.9115661701848e-07
  58    -2.3376543799312e-08
  59    3.6368663298446e-06
  60    3.6375001883928e-06
  61    3.6315381335569e-07
  62    -9.2102122539739e-08
  63      0.22216911154924
  64      0.22216863641303
  65    3.7202811199732e-08
  66      0.22217117968088
  67    -1.2670018814664e-07
  68      0.14298372438152
  69       0.1429834174236
  70    2.3229980678635e-08
  71      0.14298496396668
  72    -3.6063032878009e-07
  73     0.088659991105969
  74      0.08865979604331
  75    4.9181872532889e-09
  76     0.088660983180606
  77    7.4279909763608e-06
  78    -0.0013897828831372
  79    -0.0013903731482583
  80    5.4058464566201e-07
  81    -0.0013943376692263
  82    -4.1339861682523e-07
  83    2.6875560878542e-07
  84    2.6873683321669e-07
  85    -2.923276695538e-11
  86    5.4834617044202e-07
  87    -4.1872866001168e-07
  88    4.1873077003284e-07
  89    6.2160816080028e-07
  90    1.0829982552236e-06
  91    8.1074685883807e-07
  92    -1.5390142194861e-05
  93    1.599821319134e-05
  94    -0.095123948014458
  95    -0.095123947102338
  96    -0.095125182488403
  97    -0.093714257845991
  98    -0.093714258087939
  99    -0.093714967180111
 100    -0.047008518036917
 101    -0.047008801194715
 102    -0.047009942888164