[Molden Format]
made by pyscf v[2.7.0]
[Atoms] (AU)
Ni   1   28     0.00000000000000     0.00000000000000     0.00000000000000
Ni   2   28     7.88015793943631     7.88015793943631     7.88015793943631
Ni   3   28     3.94007896971815     3.94007896971815     7.88015793943631
Ni   4   28    11.82023690915446    11.82023690915446    15.76031587887262
Ni   5   28     7.88015793943631     7.88015793943631    15.76031587887262
Ni   6   28    15.76031587887262    15.76031587887262    23.64047381830892
Ni   7   28    11.82023690915446    11.82023690915446    23.64047381830892
Ni   8   28    19.70039484859077    19.70039484859077    31.52063175774523
O   9   8     3.94007896971815     3.94007896971815     3.94007896971815
O   10   8    11.82023690915446    11.82023690915446    11.82023690915446
O   11   8     7.88015793943631     7.88015793943631    11.82023690915446
O   12   8    15.76031587887262    15.76031587887262    19.70039484859077
O   13   8    11.82023690915446    11.82023690915446    19.70039484859077
O   14   8    19.70039484859077    19.70039484859077    27.58055278802708
O   15   8    15.76031587887262    15.76031587887262    27.58055278802708
O   16   8    23.64047381830892    23.64047381830892    35.46071072746339
[GTO]
1 0
 s    8 1.00
          351535.72935  0.00023900118713546
          52695.809283  0.0018531440897204
          11992.468293  0.0096377482811891
          3394.5776689   0.039188295615695
          1105.3594585     0.1276492017934
          397.14677769    0.30336594963671
          154.27542974    0.43476507060194
           61.01872378    0.22936084921559
 s    4 1.00
          384.45559739  -0.024956057234426
          119.04879199   -0.11802646093842
          19.137012223    0.55542443479614
          8.1526718562    0.53290870398319
 s    2 1.00
          12.579408642   -0.37808523533197
          2.0870866081     1.1725666802369
 s    1 1.00
         0.86432568555                   1
 s    1 1.00
         0.13283169217                   1
 p    6 1.00
          1883.0907486  0.0026859082409862
           445.9515532   0.021816215326601
          143.08430815    0.10260154127892
          53.372920722    0.29610961202189
          21.321919357    0.47851295906874
          8.6643561994    0.27869541549053
 p    3 1.00
          34.144255211  -0.020736702335551
          4.7122455921    0.38861896640776
          1.8709231845    0.67329366995873
 p    1 1.00
         0.70370016267                   1
 p    1 1.00
              0.146588                   1
 d    4 1.00
          74.591603465   0.019859142269269
          21.590632752     0.1227271844904
           7.624614258    0.38208583108419
          2.8632206762    0.64198425524228
 d    1 1.00
          1.0311063388                   1
 d    1 1.00
         0.33060760691                   1
 d    1 1.00
                 0.106                   1
 f    1 1.00
                 2.174                   1

2 0
 s    8 1.00
          351535.72935  0.00023900118713546
          52695.809283  0.0018531440897204
          11992.468293  0.0096377482811891
          3394.5776689   0.039188295615695
          1105.3594585     0.1276492017934
          397.14677769    0.30336594963671
          154.27542974    0.43476507060194
           61.01872378    0.22936084921559
 s    4 1.00
          384.45559739  -0.024956057234426
          119.04879199   -0.11802646093842
          19.137012223    0.55542443479614
          8.1526718562    0.53290870398319
 s    2 1.00
          12.579408642   -0.37808523533197
          2.0870866081     1.1725666802369
 s    1 1.00
         0.86432568555                   1
 s    1 1.00
         0.13283169217                   1
 p    6 1.00
          1883.0907486  0.0026859082409862
           445.9515532   0.021816215326601
          143.08430815    0.10260154127892
          53.372920722    0.29610961202189
          21.321919357    0.47851295906874
          8.6643561994    0.27869541549053
 p    3 1.00
          34.144255211  -0.020736702335551
          4.7122455921    0.38861896640776
          1.8709231845    0.67329366995873
 p    1 1.00
         0.70370016267                   1
 p    1 1.00
              0.146588                   1
 d    4 1.00
          74.591603465   0.019859142269269
          21.590632752     0.1227271844904
           7.624614258    0.38208583108419
          2.8632206762    0.64198425524228
 d    1 1.00
          1.0311063388                   1
 d    1 1.00
         0.33060760691                   1
 d    1 1.00
                 0.106                   1
 f    1 1.00
                 2.174                   1

3 0
 s    8 1.00
          351535.72935  0.00023900118713546
          52695.809283  0.0018531440897204
          11992.468293  0.0096377482811891
          3394.5776689   0.039188295615695
          1105.3594585     0.1276492017934
          397.14677769    0.30336594963671
          154.27542974    0.43476507060194
           61.01872378    0.22936084921559
 s    4 1.00
          384.45559739  -0.024956057234426
          119.04879199   -0.11802646093842
          19.137012223    0.55542443479614
          8.1526718562    0.53290870398319
 s    2 1.00
          12.579408642   -0.37808523533197
          2.0870866081     1.1725666802369
 s    1 1.00
         0.86432568555                   1
 s    1 1.00
         0.13283169217                   1
 p    6 1.00
          1883.0907486  0.0026859082409862
           445.9515532   0.021816215326601
          143.08430815    0.10260154127892
          53.372920722    0.29610961202189
          21.321919357    0.47851295906874
          8.6643561994    0.27869541549053
 p    3 1.00
          34.144255211  -0.020736702335551
          4.7122455921    0.38861896640776
          1.8709231845    0.67329366995873
 p    1 1.00
         0.70370016267                   1
 p    1 1.00
              0.146588                   1
 d    4 1.00
          74.591603465   0.019859142269269
          21.590632752     0.1227271844904
           7.624614258    0.38208583108419
          2.8632206762    0.64198425524228
 d    1 1.00
          1.0311063388                   1
 d    1 1.00
         0.33060760691                   1
 d    1 1.00
                 0.106                   1
 f    1 1.00
                 2.174                   1

4 0
 s    8 1.00
          351535.72935  0.00023900118713546
          52695.809283  0.0018531440897204
          11992.468293  0.0096377482811891
          3394.5776689   0.039188295615695
          1105.3594585     0.1276492017934
          397.14677769    0.30336594963671
          154.27542974    0.43476507060194
           61.01872378    0.22936084921559
 s    4 1.00
          384.45559739  -0.024956057234426
          119.04879199   -0.11802646093842
          19.137012223    0.55542443479614
          8.1526718562    0.53290870398319
 s    2 1.00
          12.579408642   -0.37808523533197
          2.0870866081     1.1725666802369
 s    1 1.00
         0.86432568555                   1
 s    1 1.00
         0.13283169217                   1
 p    6 1.00
          1883.0907486  0.0026859082409862
           445.9515532   0.021816215326601
          143.08430815    0.10260154127892
          53.372920722    0.29610961202189
          21.321919357    0.47851295906874
          8.6643561994    0.27869541549053
 p    3 1.00
          34.144255211  -0.020736702335551
          4.7122455921    0.38861896640776
          1.8709231845    0.67329366995873
 p    1 1.00
         0.70370016267                   1
 p    1 1.00
              0.146588                   1
 d    4 1.00
          74.591603465   0.019859142269269
          21.590632752     0.1227271844904
           7.624614258    0.38208583108419
          2.8632206762    0.64198425524228
 d    1 1.00
          1.0311063388                   1
 d    1 1.00
         0.33060760691                   1
 d    1 1.00
                 0.106                   1
 f    1 1.00
                 2.174                   1

5 0
 s    8 1.00
          351535.72935  0.00023900118713546
          52695.809283  0.0018531440897204
          11992.468293  0.0096377482811891
          3394.5776689   0.039188295615695
          1105.3594585     0.1276492017934
          397.14677769    0.30336594963671
          154.27542974    0.43476507060194
           61.01872378    0.22936084921559
 s    4 1.00
          384.45559739  -0.024956057234426
          119.04879199   -0.11802646093842
          19.137012223    0.55542443479614
          8.1526718562    0.53290870398319
 s    2 1.00
          12.579408642   -0.37808523533197
          2.0870866081     1.1725666802369
 s    1 1.00
         0.86432568555                   1
 s    1 1.00
         0.13283169217                   1
 p    6 1.00
          1883.0907486  0.0026859082409862
           445.9515532   0.021816215326601
          143.08430815    0.10260154127892
          53.372920722    0.29610961202189
          21.321919357    0.47851295906874
          8.6643561994    0.27869541549053
 p    3 1.00
          34.144255211  -0.020736702335551
          4.7122455921    0.38861896640776
          1.8709231845    0.67329366995873
 p    1 1.00
         0.70370016267                   1
 p    1 1.00
              0.146588                   1
 d    4 1.00
          74.591603465   0.019859142269269
          21.590632752     0.1227271844904
           7.624614258    0.38208583108419
          2.8632206762    0.64198425524228
 d    1 1.00
          1.0311063388                   1
 d    1 1.00
         0.33060760691                   1
 d    1 1.00
                 0.106                   1
 f    1 1.00
                 2.174                   1

6 0
 s    8 1.00
          351535.72935  0.00023900118713546
          52695.809283  0.0018531440897204
          11992.468293  0.0096377482811891
          3394.5776689   0.039188295615695
          1105.3594585     0.1276492017934
          397.14677769    0.30336594963671
          154.27542974    0.43476507060194
           61.01872378    0.22936084921559
 s    4 1.00
          384.45559739  -0.024956057234426
          119.04879199   -0.11802646093842
          19.137012223    0.55542443479614
          8.1526718562    0.53290870398319
 s    2 1.00
          12.579408642   -0.37808523533197
          2.0870866081     1.1725666802369
 s    1 1.00
         0.86432568555                   1
 s    1 1.00
         0.13283169217                   1
 p    6 1.00
          1883.0907486  0.0026859082409862
           445.9515532   0.021816215326601
          143.08430815    0.10260154127892
          53.372920722    0.29610961202189
          21.321919357    0.47851295906874
          8.6643561994    0.27869541549053
 p    3 1.00
          34.144255211  -0.020736702335551
          4.7122455921    0.38861896640776
          1.8709231845    0.67329366995873
 p    1 1.00
         0.70370016267                   1
 p    1 1.00
              0.146588                   1
 d    4 1.00
          74.591603465   0.019859142269269
          21.590632752     0.1227271844904
           7.624614258    0.38208583108419
          2.8632206762    0.64198425524228
 d    1 1.00
          1.0311063388                   1
 d    1 1.00
         0.33060760691                   1
 d    1 1.00
                 0.106                   1
 f    1 1.00
                 2.174                   1

7 0
 s    8 1.00
          351535.72935  0.00023900118713546
          52695.809283  0.0018531440897204
          11992.468293  0.0096377482811891
          3394.5776689   0.039188295615695
          1105.3594585     0.1276492017934
          397.14677769    0.30336594963671
          154.27542974    0.43476507060194
           61.01872378    0.22936084921559
 s    4 1.00
          384.45559739  -0.024956057234426
          119.04879199   -0.11802646093842
          19.137012223    0.55542443479614
          8.1526718562    0.53290870398319
 s    2 1.00
          12.579408642   -0.37808523533197
          2.0870866081     1.1725666802369
 s    1 1.00
         0.86432568555                   1
 s    1 1.00
         0.13283169217                   1
 p    6 1.00
          1883.0907486  0.0026859082409862
           445.9515532   0.021816215326601
          143.08430815    0.10260154127892
          53.372920722    0.29610961202189
          21.321919357    0.47851295906874
          8.6643561994    0.27869541549053
 p    3 1.00
          34.144255211  -0.020736702335551
          4.7122455921    0.38861896640776
          1.8709231845    0.67329366995873
 p    1 1.00
         0.70370016267                   1
 p    1 1.00
              0.146588                   1
 d    4 1.00
          74.591603465   0.019859142269269
          21.590632752     0.1227271844904
           7.624614258    0.38208583108419
          2.8632206762    0.64198425524228
 d    1 1.00
          1.0311063388                   1
 d    1 1.00
         0.33060760691                   1
 d    1 1.00
                 0.106                   1
 f    1 1.00
                 2.174                   1

8 0
 s    8 1.00
          351535.72935  0.00023900118713546
          52695.809283  0.0018531440897204
          11992.468293  0.0096377482811891
          3394.5776689   0.039188295615695
          1105.3594585     0.1276492017934
          397.14677769    0.30336594963671
          154.27542974    0.43476507060194
           61.01872378    0.22936084921559
 s    4 1.00
          384.45559739  -0.024956057234426
          119.04879199   -0.11802646093842
          19.137012223    0.55542443479614
          8.1526718562    0.53290870398319
 s    2 1.00
          12.579408642   -0.37808523533197
          2.0870866081     1.1725666802369
 s    1 1.00
         0.86432568555                   1
 s    1 1.00
         0.13283169217                   1
 p    6 1.00
          1883.0907486  0.0026859082409862
           445.9515532   0.021816215326601
          143.08430815    0.10260154127892
          53.372920722    0.29610961202189
          21.321919357    0.47851295906874
          8.6643561994    0.27869541549053
 p    3 1.00
          34.144255211  -0.020736702335551
          4.7122455921    0.38861896640776
          1.8709231845    0.67329366995873
 p    1 1.00
         0.70370016267                   1
 p    1 1.00
              0.146588                   1
 d    4 1.00
          74.591603465   0.019859142269269
          21.590632752     0.1227271844904
           7.624614258    0.38208583108419
          2.8632206762    0.64198425524228
 d    1 1.00
          1.0311063388                   1
 d    1 1.00
         0.33060760691                   1
 d    1 1.00
                 0.106                   1
 f    1 1.00
                 2.174                   1

9 0
 s    6 1.00
          27032.382631  0.00057227335211155
          4052.3871392  0.0044353233492995
           922.3272271   0.023020107706038
          261.24070989   0.092822490667928
          85.354641351    0.29378500009671
          31.035035245    0.67401604501641
 s    2 1.00
          12.260860728    0.63839937025506
          4.9987076005    0.39534587125718
 s    1 1.00
          1.1703108158                   1
 s    1 1.00
         0.46474740994                   1
 s    1 1.00
         0.18504536357                   1
 p    4 1.00
          63.274954801   0.012018332222616
          14.627049379   0.083005421790056
          4.4501223456    0.31991743925964
          1.5275799647    0.70715542916104
 p    1 1.00
         0.52935117943                   1
 p    1 1.00
          0.1747842127                   1
 d    1 1.00
                 2.314                   1
 d    1 1.00
                 0.645                   1
 f    1 1.00
                 1.428                   1

10 0
 s    6 1.00
          27032.382631  0.00057227335211155
          4052.3871392  0.0044353233492995
           922.3272271   0.023020107706038
          261.24070989   0.092822490667928
          85.354641351    0.29378500009671
          31.035035245    0.67401604501641
 s    2 1.00
          12.260860728    0.63839937025506
          4.9987076005    0.39534587125718
 s    1 1.00
          1.1703108158                   1
 s    1 1.00
         0.46474740994                   1
 s    1 1.00
         0.18504536357                   1
 p    4 1.00
          63.274954801   0.012018332222616
          14.627049379   0.083005421790056
          4.4501223456    0.31991743925964
          1.5275799647    0.70715542916104
 p    1 1.00
         0.52935117943                   1
 p    1 1.00
          0.1747842127                   1
 d    1 1.00
                 2.314                   1
 d    1 1.00
                 0.645                   1
 f    1 1.00
                 1.428                   1

11 0
 s    6 1.00
          27032.382631  0.00057227335211155
          4052.3871392  0.0044353233492995
           922.3272271   0.023020107706038
          261.24070989   0.092822490667928
          85.354641351    0.29378500009671
          31.035035245    0.67401604501641
 s    2 1.00
          12.260860728    0.63839937025506
          4.9987076005    0.39534587125718
 s    1 1.00
          1.1703108158                   1
 s    1 1.00
         0.46474740994                   1
 s    1 1.00
         0.18504536357                   1
 p    4 1.00
          63.274954801   0.012018332222616
          14.627049379   0.083005421790056
          4.4501223456    0.31991743925964
          1.5275799647    0.70715542916104
 p    1 1.00
         0.52935117943                   1
 p    1 1.00
          0.1747842127                   1
 d    1 1.00
                 2.314                   1
 d    1 1.00
                 0.645                   1
 f    1 1.00
                 1.428                   1

12 0
 s    6 1.00
          27032.382631  0.00057227335211155
          4052.3871392  0.0044353233492995
           922.3272271   0.023020107706038
          261.24070989   0.092822490667928
          85.354641351    0.29378500009671
          31.035035245    0.67401604501641
 s    2 1.00
          12.260860728    0.63839937025506
          4.9987076005    0.39534587125718
 s    1 1.00
          1.1703108158                   1
 s    1 1.00
         0.46474740994                   1
 s    1 1.00
         0.18504536357                   1
 p    4 1.00
          63.274954801   0.012018332222616
          14.627049379   0.083005421790056
          4.4501223456    0.31991743925964
          1.5275799647    0.70715542916104
 p    1 1.00
         0.52935117943                   1
 p    1 1.00
          0.1747842127                   1
 d    1 1.00
                 2.314                   1
 d    1 1.00
                 0.645                   1
 f    1 1.00
                 1.428                   1

13 0
 s    6 1.00
          27032.382631  0.00057227335211155
          4052.3871392  0.0044353233492995
           922.3272271   0.023020107706038
          261.24070989   0.092822490667928
          85.354641351    0.29378500009671
          31.035035245    0.67401604501641
 s    2 1.00
          12.260860728    0.63839937025506
          4.9987076005    0.39534587125718
 s    1 1.00
          1.1703108158                   1
 s    1 1.00
         0.46474740994                   1
 s    1 1.00
         0.18504536357                   1
 p    4 1.00
          63.274954801   0.012018332222616
          14.627049379   0.083005421790056
          4.4501223456    0.31991743925964
          1.5275799647    0.70715542916104
 p    1 1.00
         0.52935117943                   1
 p    1 1.00
          0.1747842127                   1
 d    1 1.00
                 2.314                   1
 d    1 1.00
                 0.645                   1
 f    1 1.00
                 1.428                   1

14 0
 s    6 1.00
          27032.382631  0.00057227335211155
          4052.3871392  0.0044353233492995
           922.3272271   0.023020107706038
          261.24070989   0.092822490667928
          85.354641351    0.29378500009671
          31.035035245    0.67401604501641
 s    2 1.00
          12.260860728    0.63839937025506
          4.9987076005    0.39534587125718
 s    1 1.00
          1.1703108158                   1
 s    1 1.00
         0.46474740994                   1
 s    1 1.00
         0.18504536357                   1
 p    4 1.00
          63.274954801   0.012018332222616
          14.627049379   0.083005421790056
          4.4501223456    0.31991743925964
          1.5275799647    0.70715542916104
 p    1 1.00
         0.52935117943                   1
 p    1 1.00
          0.1747842127                   1
 d    1 1.00
                 2.314                   1
 d    1 1.00
                 0.645                   1
 f    1 1.00
                 1.428                   1

15 0
 s    6 1.00
          27032.382631  0.00057227335211155
          4052.3871392  0.0044353233492995
           922.3272271   0.023020107706038
          261.24070989   0.092822490667928
          85.354641351    0.29378500009671
          31.035035245    0.67401604501641
 s    2 1.00
          12.260860728    0.63839937025506
          4.9987076005    0.39534587125718
 s    1 1.00
          1.1703108158                   1
 s    1 1.00
         0.46474740994                   1
 s    1 1.00
         0.18504536357                   1
 p    4 1.00
          63.274954801   0.012018332222616
          14.627049379   0.083005421790056
          4.4501223456    0.31991743925964
          1.5275799647    0.70715542916104
 p    1 1.00
         0.52935117943                   1
 p    1 1.00
          0.1747842127                   1
 d    1 1.00
                 2.314                   1
 d    1 1.00
                 0.645                   1
 f    1 1.00
                 1.428                   1

16 0
 s    6 1.00
          27032.382631  0.00057227335211155
          4052.3871392  0.0044353233492995
           922.3272271   0.023020107706038
          261.24070989   0.092822490667928
          85.354641351    0.29378500009671
          31.035035245    0.67401604501641
 s    2 1.00
          12.260860728    0.63839937025506
          4.9987076005    0.39534587125718
 s    1 1.00
          1.1703108158                   1
 s    1 1.00
         0.46474740994                   1
 s    1 1.00
         0.18504536357                   1
 p    4 1.00
          63.274954801   0.012018332222616
          14.627049379   0.083005421790056
          4.4501223456    0.31991743925964
          1.5275799647    0.70715542916104
 p    1 1.00
         0.52935117943                   1
 p    1 1.00
          0.1747842127                   1
 d    1 1.00
                 2.314                   1
 d    1 1.00
                 0.645                   1
 f    1 1.00
                 1.428                   1

[5d]
[7f]
[9g]

[MO]
 Sym= A
 Ene=               0
 Spin= Alpha
 Occup=    1.00000
   1    -0.0019526271116493
   2    0.0040977545336451
   3    -0.018199287518001
   4    0.0079546982526477
   5    -0.069250005800703
   6    -0.0014112413534693
   7    -0.0014112377228229
   8    0.00042802649717712
   9    0.0039927906831685
  10     0.003992780574764
  11    -0.0011013773124959
  12    -0.00023754688018071
  13    -0.00023754706107275
  14    -0.00051976003203841
  15    -0.0052833830730469
  16    -0.0052833533329592
  17    -0.010404028245114
  18     -0.04484762748556
  19     0.020947594289915
  20     0.020947727718746
  21    1.0441975027602e-08
  22     -0.60259019117343
  23    -0.031305719313287
  24     0.012162963770112
  25      0.01216304903836
  26    7.9958262020139e-09
  27      -0.3874502914649
  28    -0.00051272768843486
  29     0.018139857216348
  30     0.018139907960543
  31    1.5433546897513e-08
  32     -0.24676367267002
  33     -0.97889609422135
  34     -0.30167804775667
  35      -0.3016778187413
  36    -6.0002423731223e-07
  37      0.64195405679274
  38    -0.00016490971384987
  39    2.000267847627e-05
  40    2.0002400307806e-05
  41    -1.1515941391488e-10
  42    -4.2472177193683e-05
  43    -0.00023987006227577
  44    0.00023986841863647
  45    0.00079590805003774
  46    -0.0020713412218936
  47    0.0065841478732571
  48    1.3645259692633e-05
  49    -0.0060436255311067
  50    -0.0027786157581801
  51    -0.0027786106858505
  52    5.3622744030139e-05
  53    0.0077184010101525
  54    0.0077183872210766
  55    -0.00050610611540575
  56    -0.00035450540229207
  57    -0.0003545070234345
  58    0.0020015879389935
  59    -0.0049234255391752
  60    -0.0049234289183614
  61    -0.0070670561057807
  62    0.00089882357966939
  63     0.018241849420132
  64     0.018241948181801
  65    -1.4120202703971e-07
  66     0.038628724399335
  67    0.0017102148679567
  68     0.013995203778114
  69     0.013995268239482
  70    -9.0637109387162e-08
  71     0.026009580704533
  72    -0.013629077708253
  73    -0.0051822045221057
  74    -0.0051821627740673
  75    -7.1403845872502e-08
  76     0.022378627777788
  77       0.8534639564794
  78      0.29169822231934
  79      0.29169792056364
  80    5.6259252600555e-07
  81     -0.57053152701051
  82    -4.1692334410469e-05
  83    0.00019481227854972
  84    0.00019481171524277
  85    5.0827123426252e-11
  86    -3.4222009471078e-05
  87    -2.6442755753893e-05
  88    2.6441881981629e-05
  89    -0.00017306178311039
  90    -0.00057262723217328
  91    -0.0033356720220069
  92    0.0081120300466069
  93    -0.029344115281701
  94    0.00055859760702241
  95    0.0005585989351826
  96    -0.00044295145605147
  97    -0.0011765167781626
  98    -0.0011765207005417
  99    0.0016540956191045
 100    -0.0025258845937525
 101    -0.0025258825988319
 102    -0.0032879308395461
 103    0.0060043532186243
 104    0.0060043055628369
 105     0.036505006733711
 106    0.00024934771780558
 107    0.0028523456528534
 108    0.0028523422388822
 109    4.4073374423329e-09
 110    -0.0035718146226957
 111    -0.0023466954994074
 112    -0.00067979835525123
 113    -0.00067980173530185
 114    2.1677347734943e-09
 115    0.0035717156681107
 116     0.024568769260257
 117     0.014134215499419
 118     0.014134211575525
 119    6.8915534418534e-09
 120    -0.032763724962183
 121     -0.98696054606136
 122     -0.29712463679715
 123     -0.29712419185992
 124    -1.6764249039351e-07
 125      0.65160981691361
 126    -1.2239977293842e-06
 127    -5.8093418990421e-05
 128    -5.8093592822418e-05
 129    4.5480565830607e-11
 130    -0.00016484462542979
 131    -2.8714182637629e-05
 132    2.8714391585617e-05
 133    0.00026784139034326
 134    0.00084718194238718
 135    0.0050447085988048
 136    -0.012577632996371
 137     0.057483435780178
 138    2.5311158553505e-05
 139    2.5310550248239e-05
 140    0.0002291690977588
 141    -0.00029265374889797
 142    -0.00029265182185784
 143    -0.0006236479992107
 144    0.0017574646249168
 145    0.0017574626324739
 146    0.00067751492333737
 147    -0.023393195322808
 148    -0.023393165547402
 149    -0.038363655337574
 150    0.00049234645009659
 151    -0.00029382587049821
 152    -0.00029382805522624
 153    -2.6723731199127e-10
 154    0.00010394804177656
 155    -5.6227983952073e-05
 156    0.00046313116955164
 157    0.00046312972690662
 158    1.1595213128543e-09
 159    0.0014569916377347
 160    -0.012630539033982
 161    -0.0063050366072001
 162    -0.0063050298531053
 163    -8.2192307084173e-09
 164     0.002156226123853
 165      0.96573810627552
 166      0.27962004646012
 167       0.2796196397591
 168    2.1424312294182e-07
 169     -0.54726588172873
 170    -0.00025502228707339
 171    0.00010971167058734
 172    0.00010971178727801
 173    3.9454556035049e-11
 174    -4.0786475054059e-05
 175    5.3835395651977e-05
 176    -5.3835476678314e-05
 177    -2.2313874303261e-06
 178    6.1137945947594e-05
 179    6.6702224409667e-05
 180    -0.00013090183141822
 181    -3.8278298729729e-06
 182    -3.5264758118154e-05
 183    -3.526471659531e-05
 184    2.1471913620486e-05
 185    0.00016897819017234
 186    0.00016897798886274
 187    -7.1358917480837e-05
 188    -0.00058115771800443
 189    -0.00058115701656936
 190    0.00018124368940897
 191     0.015606565591776
 192     0.015606558678011
 193    -0.006449875542596
 194    0.00014614156209077
 195    0.00021797802578112
 196    0.0002179779085568
 197    5.1998716151406e-11
 198    -0.00051992702784578
 199    -0.00060944494981052
 200    -0.0016867632969588
 201    -0.001686763025091
 202    -5.2769698373089e-10
 203    0.0032470808511172
 204     0.017003254593394
 205     0.010846770615006
 206     0.010846766768998
 207    9.1162491774245e-09
 208    -0.023276343134312
 209     -0.89921987349881
 210     -0.29412668557675
 211      -0.2941264985299
 212    -3.6637355906308e-07
 213      0.60733740016085
 214    3.1982964602029e-05
 215    7.3702362130408e-06
 216    7.3701766752822e-06
 217    3.0303703106374e-11
 218    -1.0859257630508e-05
 219    -2.9164862508708e-05
 220    2.9164891647816e-05
 221    9.5751253495813e-05
 222    2.8467379109041e-05
 223    0.0013701885801243
 224    -0.0024100189577503
 225     0.015515679416896
 226    -6.9179513958426e-05
 227    -6.9179531684156e-05
 228    6.3787931089345e-05
 229    0.0002949167247155
 230    0.0002949168131768
 231    -0.00012872008585577
 232    -0.00080842821752595
 233    -0.0008084284102003
 234    -0.00049868408687059
 235    0.0055197643801461
 236    0.0055197555091903
 237     0.015492374578272
 238    -0.00040037175352207
 239    0.0001342563934636
 240    0.0001342564428859
 241    -1.1452465114833e-10
 242    -0.00028274300969956
 243    0.00085004064368363
 244    0.00057268135475884
 245    0.00057268097440729
 246    7.1406272582828e-10
 247    0.0013382200635076
 248    -0.018085897283085
 249    -0.0056191021135846
 250    -0.0056190978965814
 251    -8.9287805409019e-09
 252    0.0020242565212011
 253      0.89472750674434