[Molden Format]
made by pyscf v[2.7.0]
[Atoms] (AU)
Ni   1   28     0.00000000000000     0.00000000000000     0.00000000000000
Ni   2   28     7.88015793943631     7.88015793943631     7.88015793943631
Ni   3   28     3.94007896971815     3.94007896971815     7.88015793943631
Ni   4   28    11.82023690915446    11.82023690915446    15.76031587887262
O   5   8     3.94007896971815     3.94007896971815     3.94007896971815
O   6   8    11.82023690915446    11.82023690915446    11.82023690915446
O   7   8     7.88015793943631     7.88015793943631    11.82023690915446
O   8   8    15.76031587887262    15.76031587887262    19.70039484859077
[GTO]
1 0
 s    8 1.00
          351535.72935  0.00023900118713546
          52695.809283  0.0018531440897204
          11992.468293  0.0096377482811891
          3394.5776689   0.039188295615695
          1105.3594585     0.1276492017934
          397.14677769    0.30336594963671
          154.27542974    0.43476507060194
           61.01872378    0.22936084921559
 s    4 1.00
          384.45559739  -0.024956057234426
          119.04879199   -0.11802646093842
          19.137012223    0.55542443479614
          8.1526718562    0.53290870398319
 s    2 1.00
          12.579408642   -0.37808523533197
          2.0870866081     1.1725666802369
 s    1 1.00
         0.86432568555                   1
 s    1 1.00
         0.13283169217                   1
 p    6 1.00
          1883.0907486  0.0026859082409862
           445.9515532   0.021816215326601
          143.08430815    0.10260154127892
          53.372920722    0.29610961202189
          21.321919357    0.47851295906874
          8.6643561994    0.27869541549053
 p    3 1.00
          34.144255211  -0.020736702335551
          4.7122455921    0.38861896640776
          1.8709231845    0.67329366995873
 p    1 1.00
         0.70370016267                   1
 p    1 1.00
              0.146588                   1
 d    4 1.00
          74.591603465   0.019859142269269
          21.590632752     0.1227271844904
           7.624614258    0.38208583108419
          2.8632206762    0.64198425524228
 d    1 1.00
          1.0311063388                   1
 d    1 1.00
         0.33060760691                   1
 d    1 1.00
                 0.106                   1
 f    1 1.00
                 2.174                   1

2 0
 s    8 1.00
          351535.72935  0.00023900118713546
          52695.809283  0.0018531440897204
          11992.468293  0.0096377482811891
          3394.5776689   0.039188295615695
          1105.3594585     0.1276492017934
          397.14677769    0.30336594963671
          154.27542974    0.43476507060194
           61.01872378    0.22936084921559
 s    4 1.00
          384.45559739  -0.024956057234426
          119.04879199   -0.11802646093842
          19.137012223    0.55542443479614
          8.1526718562    0.53290870398319
 s    2 1.00
          12.579408642   -0.37808523533197
          2.0870866081     1.1725666802369
 s    1 1.00
         0.86432568555                   1
 s    1 1.00
         0.13283169217                   1
 p    6 1.00
          1883.0907486  0.0026859082409862
           445.9515532   0.021816215326601
          143.08430815    0.10260154127892
          53.372920722    0.29610961202189
          21.321919357    0.47851295906874
          8.6643561994    0.27869541549053
 p    3 1.00
          34.144255211  -0.020736702335551
          4.7122455921    0.38861896640776
          1.8709231845    0.67329366995873
 p    1 1.00
         0.70370016267                   1
 p    1 1.00
              0.146588                   1
 d    4 1.00
          74.591603465   0.019859142269269
          21.590632752     0.1227271844904
           7.624614258    0.38208583108419
          2.8632206762    0.64198425524228
 d    1 1.00
          1.0311063388                   1
 d    1 1.00
         0.33060760691                   1
 d    1 1.00
                 0.106                   1
 f    1 1.00
                 2.174                   1

3 0
 s    8 1.00
          351535.72935  0.00023900118713546
          52695.809283  0.0018531440897204
          11992.468293  0.0096377482811891
          3394.5776689   0.039188295615695
          1105.3594585     0.1276492017934
          397.14677769    0.30336594963671
          154.27542974    0.43476507060194
           61.01872378    0.22936084921559
 s    4 1.00
          384.45559739  -0.024956057234426
          119.04879199   -0.11802646093842
          19.137012223    0.55542443479614
          8.1526718562    0.53290870398319
 s    2 1.00
          12.579408642   -0.37808523533197
          2.0870866081     1.1725666802369
 s    1 1.00
         0.86432568555                   1
 s    1 1.00
         0.13283169217                   1
 p    6 1.00
          1883.0907486  0.0026859082409862
           445.9515532   0.021816215326601
          143.08430815    0.10260154127892
          53.372920722    0.29610961202189
          21.321919357    0.47851295906874
          8.6643561994    0.27869541549053
 p    3 1.00
          34.144255211  -0.020736702335551
          4.7122455921    0.38861896640776
          1.8709231845    0.67329366995873
 p    1 1.00
         0.70370016267                   1
 p    1 1.00
              0.146588                   1
 d    4 1.00
          74.591603465   0.019859142269269
          21.590632752     0.1227271844904
           7.624614258    0.38208583108419
          2.8632206762    0.64198425524228
 d    1 1.00
          1.0311063388                   1
 d    1 1.00
         0.33060760691                   1
 d    1 1.00
                 0.106                   1
 f    1 1.00
                 2.174                   1

4 0
 s    8 1.00
          351535.72935  0.00023900118713546
          52695.809283  0.0018531440897204
          11992.468293  0.0096377482811891
          3394.5776689   0.039188295615695
          1105.3594585     0.1276492017934
          397.14677769    0.30336594963671
          154.27542974    0.43476507060194
           61.01872378    0.22936084921559
 s    4 1.00
          384.45559739  -0.024956057234426
          119.04879199   -0.11802646093842
          19.137012223    0.55542443479614
          8.1526718562    0.53290870398319
 s    2 1.00
          12.579408642   -0.37808523533197
          2.0870866081     1.1725666802369
 s    1 1.00
         0.86432568555                   1
 s    1 1.00
         0.13283169217                   1
 p    6 1.00
          1883.0907486  0.0026859082409862
           445.9515532   0.021816215326601
          143.08430815    0.10260154127892
          53.372920722    0.29610961202189
          21.321919357    0.47851295906874
          8.6643561994    0.27869541549053
 p    3 1.00
          34.144255211  -0.020736702335551
          4.7122455921    0.38861896640776
          1.8709231845    0.67329366995873
 p    1 1.00
         0.70370016267                   1
 p    1 1.00
              0.146588                   1
 d    4 1.00
          74.591603465   0.019859142269269
          21.590632752     0.1227271844904
           7.624614258    0.38208583108419
          2.8632206762    0.64198425524228
 d    1 1.00
          1.0311063388                   1
 d    1 1.00
         0.33060760691                   1
 d    1 1.00
                 0.106                   1
 f    1 1.00
                 2.174                   1

5 0
 s    6 1.00
          27032.382631  0.00057227335211155
          4052.3871392  0.0044353233492995
           922.3272271   0.023020107706038
          261.24070989   0.092822490667928
          85.354641351    0.29378500009671
          31.035035245    0.67401604501641
 s    2 1.00
          12.260860728    0.63839937025506
          4.9987076005    0.39534587125718
 s    1 1.00
          1.1703108158                   1
 s    1 1.00
         0.46474740994                   1
 s    1 1.00
         0.18504536357                   1
 p    4 1.00
          63.274954801   0.012018332222616
          14.627049379   0.083005421790056
          4.4501223456    0.31991743925964
          1.5275799647    0.70715542916104
 p    1 1.00
         0.52935117943                   1
 p    1 1.00
          0.1747842127                   1
 d    1 1.00
                 2.314                   1
 d    1 1.00
                 0.645                   1
 f    1 1.00
                 1.428                   1

6 0
 s    6 1.00
          27032.382631  0.00057227335211155
          4052.3871392  0.0044353233492995
           922.3272271   0.023020107706038
          261.24070989   0.092822490667928
          85.354641351    0.29378500009671
          31.035035245    0.67401604501641
 s    2 1.00
          12.260860728    0.63839937025506
          4.9987076005    0.39534587125718
 s    1 1.00
          1.1703108158                   1
 s    1 1.00
         0.46474740994                   1
 s    1 1.00
         0.18504536357                   1
 p    4 1.00
          63.274954801   0.012018332222616
          14.627049379   0.083005421790056
          4.4501223456    0.31991743925964
          1.5275799647    0.70715542916104
 p    1 1.00
         0.52935117943                   1
 p    1 1.00
          0.1747842127                   1
 d    1 1.00
                 2.314                   1
 d    1 1.00
                 0.645                   1
 f    1 1.00
                 1.428                   1

7 0
 s    6 1.00
          27032.382631  0.00057227335211155
          4052.3871392  0.0044353233492995
           922.3272271   0.023020107706038
          261.24070989   0.092822490667928
          85.354641351    0.29378500009671
          31.035035245    0.67401604501641
 s    2 1.00
          12.260860728    0.63839937025506
          4.9987076005    0.39534587125718
 s    1 1.00
          1.1703108158                   1
 s    1 1.00
         0.46474740994                   1
 s    1 1.00
         0.18504536357                   1
 p    4 1.00
          63.274954801   0.012018332222616
          14.627049379   0.083005421790056
          4.4501223456    0.31991743925964
          1.5275799647    0.70715542916104
 p    1 1.00
         0.52935117943                   1
 p    1 1.00
          0.1747842127                   1
 d    1 1.00
                 2.314                   1
 d    1 1.00
                 0.645                   1
 f    1 1.00
                 1.428                   1

8 0
 s    6 1.00
          27032.382631  0.00057227335211155
          4052.3871392  0.0044353233492995
           922.3272271   0.023020107706038
          261.24070989   0.092822490667928
          85.354641351    0.29378500009671
          31.035035245    0.67401604501641
 s    2 1.00
          12.260860728    0.63839937025506
          4.9987076005    0.39534587125718
 s    1 1.00
          1.1703108158                   1
 s    1 1.00
         0.46474740994                   1
 s    1 1.00
         0.18504536357                   1
 p    4 1.00
          63.274954801   0.012018332222616
          14.627049379   0.083005421790056
          4.4501223456    0.31991743925964
          1.5275799647    0.70715542916104
 p    1 1.00
         0.52935117943                   1
 p    1 1.00
          0.1747842127                   1
 d    1 1.00
                 2.314                   1
 d    1 1.00
                 0.645                   1
 f    1 1.00
                 1.428                   1

[5d]
[7f]
[9g]

[MO]
 Sym= A
 Ene=               0
 Spin= Alpha
 Occup=    1.00000
   1    7.1631530951005e-10
   2    -5.3099220424306e-09
   3    1.0160826376698e-10
   4    2.9126846473997e-08
   5    -7.5663104335338e-08
   6    0.0014345570580069
   7    -0.0014345553143714
   8    1.1879463292089e-09
   9    -0.0038801305961461
  10     0.003880125772828
  11    -3.0315116315124e-09
  12    -0.00049160350002599
  13    0.00049160348590528
  14    -2.2360075822033e-09
  15    0.0033187850550582
  16    -0.0033187798550303
  17    2.8682883445683e-08
  18    -9.4834185397286e-12
  19      0.36161842180685
  20      -0.3616185123453
  21    -0.012873393797364
  22    1.8570124591966e-08
  23    3.6857990577927e-10
  24      0.23373923595094
  25     -0.23373929765639
  26    -0.0094862807144601
  27    1.2335737780879e-08
  28    7.122985571953e-09
  29      0.13494337707635
  30     -0.13494339849056
  31    -0.0063837342204827
  32     4.55638844765e-09
  33    -5.4292032234786e-07
  34     -0.38543418917964
  35      0.38543390224993
  36      0.11723493534188
  37    2.9354356088095e-07
  38    1.6607739334221e-10
  39    3.8685990825311e-05
  40    -3.8686116931071e-05
  41    0.00024250065606032
  42    1.3354122899495e-11
  43    0.00017512262015376
  44    0.0001751224108777
  45    -7.8764100772902e-10
  46    5.4355495647354e-09
  47    -8.8194660548022e-10
  48    -2.8690659486697e-08
  49    7.2882401452078e-08
  50    -0.0011326905078601
  51    0.0011326921738961
  52    1.4073791794578e-09
  53    0.0033817436732181
  54    -0.0033817483058759
  55    -3.6336685360746e-09
  56    -0.0018555965804473
  57    0.0018555969349213
  58    -2.2577361831014e-09
  59    0.0025275055089832
  60    -0.002527499457973
  61    2.8642708898105e-08
  62     9.09417562325e-10
  63      0.23881129120353
  64       -0.238811208791
  65      0.08019910280045
  66    -2.153121747098e-08
  67    7.5825759533648e-10
  68      0.15481806189924
  69      -0.1548180056352
  70      0.05244495959992
  71    -1.4478740406193e-08
  72    -7.9321407400944e-09
  73     0.084601047306697
  74    -0.084601028753109
  75     0.024770658834972
  76    -5.3808695015523e-09
  77    5.4451781063097e-07
  78    -0.025844878530853
  79     0.025845167324921
  80      0.38138955638869
  81    -2.9447852228916e-07
  82    1.9314384128055e-10
  83    8.326229210904e-05
  84    -8.3262419722467e-05
  85    -0.00030553959964412
  86    1.2037699857565e-11
  87    -0.00013750727079373
  88    -0.00013750747701093
  89    -3.9337359792041e-10
  90    -9.2374504052229e-10
  91    -6.8417960000448e-09
  92    1.5012337134523e-08
  93    -4.7460149576686e-08
  94    -0.0013925485683987
  95    0.0013925479283713
  96    -1.5482182201274e-09
  97    0.0037762718010763
  98    -0.003776270279394
  99    4.2581352296814e-09
 100    0.00028738981005606
 101    -0.00028738852262669
 102    2.4270808973864e-10
 103    -0.00052636216691029
 104    0.00052635846792871
 105    2.4404415414331e-09
 106    -2.6550158081968e-09
 107    -0.0044681750817031
 108    0.0044681717323484
 109     0.005425755793406
 110    1.6339741226306e-10
 111    -1.6492340827911e-09
 112    -0.0035005376112606
 113    0.0035005320744212
 114    0.0023706329283358
 115    -1.2788021464815e-10
 116    6.6787388588683e-09
 117    -0.0044718995871165
 118    0.0044719118780089
 119     0.024328518018931
 120    -3.3129487421381e-09
 121    -5.5914894104898e-07
 122      0.14197434352886
 123     -0.14197465861087
 124     -0.65096853105755
 125    2.9053695098724e-07
 126    1.8990477935292e-10
 127    8.1593308378353e-06
 128    -8.1594211074919e-06
 129    -0.00030911637963479
 130    -8.3110182630064e-12
 131    2.2605715335727e-05
 132    2.2605650284084e-05
 133    3.8366630920179e-10
 134    1.005417203773e-09
 135    6.8025984113468e-09
 136    -1.5462180498147e-08
 137    4.6467392265351e-08
 138    0.00048463760089379
 139    -0.0004846378035865
 140    -1.6040508853682e-09
 141    -0.0012852069054957
 142    0.0012852072378782
 143    4.3852250974545e-09
 144    -0.00014003413107228
 145    0.00014003554581504
 146    3.6281895454471e-10
 147    -0.0010688116615305
 148    0.0010688068246966
 149    4.275911025072e-09
 150    2.1155682538681e-09
 151    -0.0015815457013063
 152    0.0015815492305388
 153    0.00020692207499362
 154    -3.4186490130416e-10
 155    1.9726568938091e-09
 156    -0.0010853639335347
 157    0.0010853694812046
 158    -8.5032003756186e-05
 159    -1.5281965180273e-10
 160    -8.4824542890139e-09
 161    -0.0074041283136546
 162    0.0074041158662901
 163    0.0039246896359314
 164    3.5811253692769e-09
 165    5.583636015398e-07
 166      0.29378658828182
 167     -0.29378627182884
 168     0.024116205904551
 169    -2.9119548794402e-07
 170    2.2452159025664e-10
 171    -1.195112777298e-05
 172    1.1951034108858e-05
 173    0.00037285151587031
 174    -3.7540064377335e-12
 175    -6.9315816440964e-05
 176    -6.9315864608735e-05
 177    9.5674798842405e-13
 178    7.4932850779164e-11
 179    -1.265340115667e-10
 180    -1.1447020625836e-09
 181    3.2727028587631e-09
 182    -0.019986190200871
 183     0.019986155412945
 184    3.1966330096397e-08
 185    -0.015308884965942
 186     0.015308852013582
 187    2.177586668442e-08
 188    0.0071659116004628
 189    -0.0071660742115931
 190    1.9780881837931e-07
 191    -1.0119624245082e-10
 192    -0.001625295985532
 193    0.0016252959679212
 194    0.00098536036976161
 195    1.0692580697395e-11
 196    3.0143978622013e-10
 197    0.0015506632420203
 198    -0.0015506631316807
 199    -0.0036282052188252
 200    2.3265601709382e-11
 201    7.2852775771792e-10
 202    -8.4801245762781e-05
 203    8.4801507731058e-05
 204    -0.00015784741819069
 205    3.6717149062801e-11
 206    -5.0911137852599e-05
 207    -5.0911103643067e-05
 208    1.5846140798316e-09
 209    3.3659061799755e-09
 210    -3.4117828529419e-09
 211    -1.2001475771589e-08
 212    -1.9686547810837e-08
 213     0.035536111381611
 214    -0.035536108771042
 215    1.3984028490519e-09
 216     0.026168051479217
 217    -0.026168049006669
 218    3.5416122133288e-10
 219    -0.043173265741173
 220      0.04317341027617
 221    -1.4653569081659e-07
 222    -6.2974959427089e-10
 223    -0.00083351566446643
 224    0.00083351551921214
 225    0.00037367527302232
 226    1.4186501475207e-10
 227    1.4484764302346e-09
 228    -0.0013767258028708
 229    0.0013767271383808
 230    0.00071408306294748
 231    7.2778269069458e-10
 232    2.2838472941458e-10
 233    0.00016181637240992
 234    -0.00016181651805861
 235    -0.00064545045595663
 236    3.5315970241258e-12
 237    0.00044729649958702
 238    0.00044729645616055
 239    4.5530599562841e-11
 240    2.2679589170304e-10
 241    -4.6911822730736e-10
 242    -1.1937270149527e-09
 243    1.1841110389389e-09
 244    0.00076396121952177
 245    -0.00076396237873625
 246    8.6977992661276e-09
 247    0.0048969699410618
 248    -0.0048969731474752
 249    -4.2135853808076e-10
 250     0.058061126909668
 251    -0.058061261654079
 252    1.7616482511787e-07
 253    -1.1020075047413e-10
 254    0.0023497049128285
 255    -0.0023497050011657
 256    -0.00050507952214647
 257    1.9619230569736e-11
 258    3.407238203996e-10
 259    -0.0067487796507711
 260    0.0067487799337049
 261     0.003062456984634
 262    -5.5904433192787e-11
 263    8.4776698393325e-10
 264    -0.00021632133041862
 265    0.00021632174100601
 266    -7.7239808890388e-05
 267    1.0495028028759e-10
 268    -9.3099650538792e-05
 269    -9.3099643884429e-05
 270    2.2748391006014e-11
 271    -5.4057115173767e-10
 272    2.7861896114999e-09
 273    -6.5921677332266e-09
 274    2.8223145908421e-08
 275    0.0026700202696629
 276    -0.0026700251875357
 277    -9.6865670995134e-10
 278    0.0085718530460563
 279    -0.0085718573952579
 280    -1.2551307483324e-09
 281    -0.024758439117146
 282     0.024758577654978
 283    -1.5058124031453e-07
 284    -6.5809928030897e-10
 285    0.0010981770979532
 286    -0.0010981774824586
 287    0.00053282251699333
 288    -1.0502878163034e-10
 289    1.9934914812307e-09
 290    -0.0028786700990642
 291    0.0028786711222849
 292    -0.0019278848493241
 293    2.674420159143e-10
 294    1.8032232689933e-10
 295    -0.00055116191188873
 296    0.00055116168184874
 297    0.0018584333419195
 298    1.0811994677462e-11
 299    -5.6387917500695e-05
 300    -5.6387982664528e-05
 Sym= A
 Ene=               1
 Spin= Alpha
 Occup=    1.00000
   1    1.0279671259351e-09
   2    -8.438517795856e-09
   3    -1.3021090833076e-09
   4    4.8415016782832e-08
   5    -1.2725828809765e-07
   6    -0.0005047242573944
   7    0.00050472719285418
   8    2.3321720687797e-09
   9    0.00088874788083307
  10    -0.00088875604525712
  11    -5.9839234284136e-09
  12    0.0037682605588062
  13    -0.0037682603166038
  14    -4.088412791678e-09
  15    -0.016417385525373
  16     0.016417395646367
  17    5.1830690295058e-08
  18    -4.1860506238419e-11
  19     -0.22715868416646
  20      0.22715854820757
  21     0.036468170817353
  22    2.4774773679007e-08
  23    7.8901213163423e-10
  24     -0.14636408333201
  25      0.14636398970197
  26      0.02584447972466
  27    1.6417751234476e-08
  28    1.229447070375e-08
  29    -0.090779822342466
  30     0.090779792992209
  31    0.0020708968096678
  32    4.5451545453829e-09
  33    -9.6952184357395e-07
  34      0.64492433551274
  35     -0.64492485593071
  36      0.45419461263524
  37    5.2678386145138e-07
  38    2.9681238833413e-10
  39    -0.0001476483878666
  40    0.00014764815238546
  41    0.0002278456953379
  42    2.0687151009225e-11
  43    -0.00015565841835348
  44    -0.00015565880501379
  45    -1.2407218100326e-09
  46    9.0489930184886e-09
  47    -5.2973174616757e-10
  48    -4.9173043674492e-08
  49    1.2614799075078e-07
  50    0.0003374887884743
  51    -0.00033748603811304
  52    2.3822953460549e-09
  53    -0.0012283689453203
  54    0.0012283612633319
  55    -6.1526981803151e-09
  56    0.0020715047026101
  57    -0.0020715039126378
  58    -3.8680134323561e-09
  59    -0.005921210306752
  60     0.005921222608499
  61    4.9805734503318e-08
  62    7.8198893999573e-10
  63      0.37355372616123
  64     -0.37355356057754
  65    -0.082684431095959
  66    -3.259206050034e-08
  67    9.1046007553478e-10
  68      0.24111222371416
  69     -0.24111211111666
  70    -0.056194369638184
  71    -2.1899487834252e-08
  72    -1.4230063608271e-08
  73       0.1446290399635
  74     -0.14462900009773
  75    -0.022864856455438
  76    -7.2430591371226e-09
  77    9.779881897087e-07
  78     -0.75240261684883
  79      0.75240313514976
  80     -0.36810622542788
  81    -5.2771084585766e-07
  82    3.6047429942135e-10
  83    -0.00015114528779638
  84    0.00015114504730769
  85    3.2842989530394e-05
  86    2.3423808063484e-11
  87    8.0891555344302e-05
  88    8.0891197297682e-05
  89    -7.3887852887934e-10
  90    -1.7484474641389e-09
  91    -1.2870046203316e-08
  92    2.8293050341017e-08
  93    -8.9480129032609e-08
  94    0.00049878768158222
  95    -0.0004987886688674
  96    -2.9008490287712e-09
  97    -0.0013297064834135
  98     0.001329708751027
  99    7.9604370911164e-09
 100    -0.00055205194992045
 101    0.0005520543883341
 102    5.537079533927e-10
 103    0.0062089920578712
 104    -0.0062090006041763
 105    4.7612316353667e-09
 106    -4.8394457967259e-09
 107    0.0010720755262796
 108    -0.0010720807501728
 109    -0.0057347202088532
 110    1.8332044816255e-10
 111    -2.8519348990371e-09
 112    0.0013136837966442
 113    -0.0013136933964981
 114    -0.0023468386010071
 115    -1.8738605203361e-10
 116    1.1525989113223e-08
 117    -0.0065860851267984
 118    0.0065861078497477
 119    -0.036090870750152
 120    -6.4737826751441e-09
 121    -1.0030916328149e-06
 122      0.30139831172662
 123     -0.30139887271423
 124       1.1881126197349
 125    5.2387564570239e-07
 126     3.51195246293e-10
 127    0.00010683031588013
 128    -0.00010683047864674
 129    -0.00023845180449055
 130    -1.4345147802124e-11
 131    6.3694343812481e-05
 132    6.3694228984816e-05
 133    7.2505315973529e-10
 134    1.9107387059997e-09
 135    1.286684542691e-08
 136    -2.9343076856324e-08
 137    8.8157321419674e-08
 138    -0.00021222899651104
 139    0.00021222871671089
 140    -2.7606480542467e-09
 141    0.00055181269254953
 142    -0.0005518123309553
 143    7.6370350224125e-09
 144    9.4795711241345e-05
 145    -9.4793096172981e-05
 146    6.8630968833263e-11
 147    0.0015826239997599
 148    -0.0015826353571713
 149    1.0547188862675e-08
 150    4.1870928093968e-09
 151    -0.0035009480611116
 152    0.0035009535600769
 153    0.0037562481930557
 154    -5.5435317441382e-10
 155    3.8697146023242e-09
 156    -0.0034706464852845
 157     0.003470655747286
 158    0.0006103671480694
 159    -1.7168757167939e-10
 160    -1.5385558261374e-08
 161    0.0046236500701175
 162    -0.0046236724457234
 163      0.04377485003135
 164    6.2033186481129e-09
 165    1.006595395527e-06
 166      -0.1951191610608
 167      0.19511972894866
 168       -1.336670657503
 169    -5.2248792459916e-07
 170    4.0584837235356e-10
 171    8.3047767970671e-05
 172    -8.3047926302695e-05
 173    -8.4733643037927e-05
 174    -7.6914835350089e-12
 175    -2.0934082370127e-05
 176    -2.0934160247535e-05
 177    1.2066461892399e-10
 178    4.494172303952e-10
 179    -7.3623510500467e-10
 180    -2.6207410105768e-09
 181    4.5441694721874e-09
 182     0.027706793969548
 183     -0.02770685040614
 184    5.964202658694e-08
 185      0.01861048578496
 186    -0.018610539800698
 187    4.1025001335418e-08
 188    -0.044180823477177
 189     0.044180539382452
 190    3.5764565908308e-07
 191    -1.8704146210179e-10
 192    -0.00040414024855371
 193    0.00040414014200774
 194    -0.00011270335233226
 195    3.1265026507371e-11
 196    5.7478174962378e-10
 197    0.00038974033433414
 198    -0.0003897401837536
 199    -0.0005769316714974
 200    7.1710850891179e-11
 201    1.3194695386133e-09
 202    0.00024135800396949
 203    -0.00024135748262537
 204    0.00085753920793372
 205    5.3824766534707e-11
 206    0.0001221233520815
 207    0.00012212343773951
 208    2.8643323991595e-09
 209    6.0425053683634e-09
 210    -5.9886931079248e-09
 211    -2.1684814795963e-08
 212    -3.811313268449e-08
 213     -0.02512009234539
 214     0.025120093888093
 215    -9.6939840021181e-10
 216    -0.017888823718572
 217     0.017888825030763
 218    -2.4423345281955e-09
 219      0.12468795641818
 220     -0.12468769786533
 221    -2.6614855590181e-07
 222    -1.159606689503e-09
 223    -0.00077036212460891
 224    0.00077036178684498
 225    0.00018432022258367
 226    2.1773744024893e-10
 227    2.7834711872669e-09
 228    0.0019720990186029
 229    -0.0019720966612209
 230    -0.0040500571508579
 231    1.3518037623822e-09
 232    4.2514197067115e-10
 233    9.0400901353571e-05
 234    -9.0401151184783e-05
 235    -0.00080953412107827
 236    2.1316576221437e-11
 237    -0.00045231207345147
 238    -0.00045231217290458
 239    8.5827377295718e-11
 240    4.1450496758908e-10
 241    -8.7059464149955e-10
 242    -2.2151514832206e-09
 243    1.9310410491557e-09
 244    -0.0054136909571571
 245    0.0054136893973465
 246    1.4852252597807e-08
 247    -0.022962799610503
 248     0.022962794540557
 249    -1.6363194809443e-09
 250     -0.19833550109531
 251      0.19833525729077
 252    3.1636757339252e-07
 253    -1.9733351203957e-10
 254    0.00050066261104376
 255    -0.00050066265111651
 256    -8.3651674347746e-05
 257    1.4400281941665e-11
 258    6.1087300328047e-10
 259    -0.0014648223486088
 260    0.0014648225212623
 261    0.0006640853224124
 262    -1.8245995300217e-11
 263    1.5542386935871e-09
 264    0.00093205970536837
 265    -0.0009320589988479
 266    0.00018929940532621
 267    1.7617942687235e-10
 268    0.00056855770791795
 269    0.00056855772867599
 270    5.9497936026227e-11
 271    -8.6195896821304e-10
 272    4.6697062592566e-09
 273    -1.2261713659398e-08
 274    5.2898376673829e-08
 275    0.0041515260612445
 276    -0.004151533551783
 277    -1.9956191417992e-09
 278     0.016311216093607
 279    -0.016311222552756
 280    -3.0343540964263e-09
 281      0.12827698589544
 282      -0.1282767396368
 283    -2.6905165258874e-07
 284    -1.149459776337e-09
 285    0.0013481416948593
 286    -0.0013481422670519
 287    -0.0012963936540982
 288    -2.0043868026984e-10
 289    3.4685513257742e-09
 290    -0.0041258906476121
 291    0.0041258921331838
 292    0.0060743290007564
 293    5.3381877988944e-10
 294    2.5540651237476e-10
 295    -0.00059967410511811
 296    0.00059967367356641
 297    -0.00082365146352207
 298    -6.550784249764e-12
 299    -0.00061952239359757
 300    -0.00061952249621747
 Sym= A
 Ene=               2
 Spin= Alpha
 Occup=    1.00000
   1    0.0024948841639529
   2    -0.0060128182033195
   3     0.022171489475771
   4    -0.0014162935429492
   5     0.034485655017948
   6    -0.0010749256478447
   7    -0.0010749254707231
   8    -0.0060738463846612
   9    0.0034108563873838
  10    0.0034108559363112
  11     0.015722278367467
  12    -0.0031591817591633
  13    -0.0031591819079417
  14    0.0085091615184051
  15     0.011958385080128
  16     0.011958383540393
  17    -0.059925491895532
  18    -0.013925301048989
  19     -0.29462305976543
  20     -0.29462305191741
  21    1.9034793710477e-08
  22     0.027181276943654
  23    -0.013441187033784
  24     -0.19241907858329
  25     -0.19241907364703
  26    1.2369749876956e-08
  27     0.019285754927232
  28    0.0025559985842901
  29     -0.10454341272122
  30     -0.10454340922044
  31    7.9635437604997e-09
  32    0.0073304991976418
  33    -0.056600524468145
  34    -0.010099364192368
  35    -0.010099375496561
  36    -3.3897456262633e-09
  37     0.039353050176072
  38    0.0001297268695384
  39    0.00010752605022912
  40    0.00010752607159824
  41    -7.1518671496701e-12
  42    1.5368411672979e-06
  43    -0.00013073733433051
  44    0.00013073738703035
  45    0.0014081454625355
  46    -0.0075489930399559
  47    0.0050069953481515
  48     0.033223946541153
  49    -0.089300023934103
  50    0.0021121697573896
  51    0.0021121701007004
  52    0.0041541984953033
  53    -0.0059062065196748
  54    -0.0059062074177241
  55    -0.011368393181207
  56    0.0004855226513105