[Molden Format]
made by pyscf v[2.7.0]
[Atoms] (AU)
Ni   1   28     0.00000000000000     0.00000000000000     0.00000000000000
Ni   2   28     7.88015793943631     7.88015793943631     7.88015793943631
O   3   8     3.94007896971815     3.94007896971815     3.94007896971815
O   4   8    11.82023690915446    11.82023690915446    11.82023690915446
[GTO]
1 0
 s    8 1.00
          351535.72935  0.00023900118713546
          52695.809283  0.0018531440897204
          11992.468293  0.0096377482811891
          3394.5776689   0.039188295615695
          1105.3594585     0.1276492017934
          397.14677769    0.30336594963671
          154.27542974    0.43476507060194
           61.01872378    0.22936084921559
 s    4 1.00
          384.45559739  -0.024956057234426
          119.04879199   -0.11802646093842
          19.137012223    0.55542443479614
          8.1526718562    0.53290870398319
 s    2 1.00
          12.579408642   -0.37808523533197
          2.0870866081     1.1725666802369
 s    1 1.00
         0.86432568555                   1
 s    1 1.00
         0.13283169217                   1
 p    6 1.00
          1883.0907486  0.0026859082409862
           445.9515532   0.021816215326601
          143.08430815    0.10260154127892
          53.372920722    0.29610961202189
          21.321919357    0.47851295906874
          8.6643561994    0.27869541549053
 p    3 1.00
          34.144255211  -0.020736702335551
          4.7122455921    0.38861896640776
          1.8709231845    0.67329366995873
 p    1 1.00
         0.70370016267                   1
 p    1 1.00
              0.146588                   1
 d    4 1.00
          74.591603465   0.019859142269269
          21.590632752     0.1227271844904
           7.624614258    0.38208583108419
          2.8632206762    0.64198425524228
 d    1 1.00
          1.0311063388                   1
 d    1 1.00
         0.33060760691                   1
 d    1 1.00
                 0.106                   1
 f    1 1.00
                 2.174                   1

2 0
 s    8 1.00
          351535.72935  0.00023900118713546
          52695.809283  0.0018531440897204
          11992.468293  0.0096377482811891
          3394.5776689   0.039188295615695
          1105.3594585     0.1276492017934
          397.14677769    0.30336594963671
          154.27542974    0.43476507060194
           61.01872378    0.22936084921559
 s    4 1.00
          384.45559739  -0.024956057234426
          119.04879199   -0.11802646093842
          19.137012223    0.55542443479614
          8.1526718562    0.53290870398319
 s    2 1.00
          12.579408642   -0.37808523533197
          2.0870866081     1.1725666802369
 s    1 1.00
         0.86432568555                   1
 s    1 1.00
         0.13283169217                   1
 p    6 1.00
          1883.0907486  0.0026859082409862
           445.9515532   0.021816215326601
          143.08430815    0.10260154127892
          53.372920722    0.29610961202189
          21.321919357    0.47851295906874
          8.6643561994    0.27869541549053
 p    3 1.00
          34.144255211  -0.020736702335551
          4.7122455921    0.38861896640776
          1.8709231845    0.67329366995873
 p    1 1.00
         0.70370016267                   1
 p    1 1.00
              0.146588                   1
 d    4 1.00
          74.591603465   0.019859142269269
          21.590632752     0.1227271844904
           7.624614258    0.38208583108419
          2.8632206762    0.64198425524228
 d    1 1.00
          1.0311063388                   1
 d    1 1.00
         0.33060760691                   1
 d    1 1.00
                 0.106                   1
 f    1 1.00
                 2.174                   1

3 0
 s    6 1.00
          27032.382631  0.00057227335211155
          4052.3871392  0.0044353233492995
           922.3272271   0.023020107706038
          261.24070989   0.092822490667928
          85.354641351    0.29378500009671
          31.035035245    0.67401604501641
 s    2 1.00
          12.260860728    0.63839937025506
          4.9987076005    0.39534587125718
 s    1 1.00
          1.1703108158                   1
 s    1 1.00
         0.46474740994                   1
 s    1 1.00
         0.18504536357                   1
 p    4 1.00
          63.274954801   0.012018332222616
          14.627049379   0.083005421790056
          4.4501223456    0.31991743925964
          1.5275799647    0.70715542916104
 p    1 1.00
         0.52935117943                   1
 p    1 1.00
          0.1747842127                   1
 d    1 1.00
                 2.314                   1
 d    1 1.00
                 0.645                   1
 f    1 1.00
                 1.428                   1

4 0
 s    6 1.00
          27032.382631  0.00057227335211155
          4052.3871392  0.0044353233492995
           922.3272271   0.023020107706038
          261.24070989   0.092822490667928
          85.354641351    0.29378500009671
          31.035035245    0.67401604501641
 s    2 1.00
          12.260860728    0.63839937025506
          4.9987076005    0.39534587125718
 s    1 1.00
          1.1703108158                   1
 s    1 1.00
         0.46474740994                   1
 s    1 1.00
         0.18504536357                   1
 p    4 1.00
          63.274954801   0.012018332222616
          14.627049379   0.083005421790056
          4.4501223456    0.31991743925964
          1.5275799647    0.70715542916104
 p    1 1.00
         0.52935117943                   1
 p    1 1.00
          0.1747842127                   1
 d    1 1.00
                 2.314                   1
 d    1 1.00
                 0.645                   1
 f    1 1.00
                 1.428                   1

[5d]
[7f]
[9g]

[MO]
 Sym= A
 Ene=               0
 Spin= Alpha
 Occup=    1.00000
   1      0.99682965796335
   2    0.0070987843305659
   3    -0.0031535367093044
   4    0.0035070725563005
   5    -0.0070298764582894
   6    9.8422450555959e-11
   7    9.8449610142288e-11
   8    7.7429942972252e-11
   9    -2.3094798905283e-10
  10    -2.3097364127107e-10
  11    -2.3948732605401e-10
  12    2.6498413128963e-10
  13    2.6500607239866e-10
  14    2.5908284277571e-10
  15    -4.4693290856364e-10
  16    -4.4696756075479e-10
  17    -4.0008685263823e-10
  18    -1.2223187423696e-11
  19    1.0499238912179e-05
  20    1.0499238588121e-05
  21    1.613825656399e-12
  22    1.0499225710021e-05
  23    1.2075924559856e-11
  24    -4.9234489553768e-05
  25    -4.9234489031747e-05
  26    -2.0520574576956e-12
  27    -4.9234469742856e-05
  28    4.4431490553296e-11
  29    0.00018648609195319
  30    0.00018648608828341
  31    7.1220448028476e-12
  32    0.00018648598321305
  33    -3.9983316657172e-09
  34    0.00023696367133357
  35    0.0002369638551858
  36    -2.0533697873181e-10
  37    0.00023696745453456
  38    -3.5268743485561e-11
  39    2.7422500393163e-11
  40    2.7433719669927e-11
  41    -2.9556955176664e-15
  42    -5.7187751023557e-11
  43    -2.7486914886444e-11
  44    2.7475948583834e-11
  45     0.040160160641403
  46    0.00027133018122175
  47    -0.00018894229402096
  48    0.00035473627823776
  49    -0.00054135809546283
  50    6.5765273915691e-12
  51    6.5771597936234e-12
  52    7.813189408001e-12
  53    -3.4885503430977e-11
  54    -3.4887004700913e-11
  55    -3.3826701631727e-11
  56    1.1052228031635e-10
  57    1.1052440783824e-10
  58    1.0823098704446e-10
  59    -4.0819193324749e-10
  60    -4.0819651703854e-10
  61    -3.8907185877177e-10
  62    3.1412837067814e-13
  63    -1.0975479003394e-05
  64    -1.0975478957875e-05
  65    -5.5870071295456e-14
  66    -1.0975480036909e-05
  67    8.419127241966e-12
  68    4.9481390178643e-05
  69    4.9481389969695e-05
  70    9.1125707272103e-14
  71    4.9481384879719e-05
  72    -1.0482258762944e-10
  73    -0.00018722852890469
  74    -0.00018722852586605
  75    -2.7091333669991e-12
  76     -0.00018722845319
  77    4.392569875502e-09
  78    -0.00023509212083682
  79    -0.00023509230300324
  80    1.8022587461401e-10
  81    -0.00023509581205531
  82    -4.2805029684419e-13
  83    5.6553328741095e-13
  84    5.6559175930033e-13
  85    -9.4792632226918e-17
  86    -1.6423559088761e-12
  87    -5.8501964347805e-13
  88    5.8474055220102e-13
  89    2.0756074381408e-05
  90    -6.5085440274155e-05
  91    0.00058260754989694
  92    -0.0027318195907923
  93    0.0057088017859051
  94    1.1772000535376e-05
  95    1.1772000532155e-05
  96    1.1772000380716e-05
  97    -0.0001743847242505
  98    -0.00017438472452158
  99    -0.00017438472313229
 100    0.0014560870487032
 101    0.0014560869636566
 102     0.001456088612339
 103    -1.4241222458744e-14
 104    -8.7518002402669e-09
 105    -8.7518075205071e-09
 106    1.0291164597828e-13
 107    -8.7542808241944e-09
 108    5.5234225776622e-12
 109    3.2921487991338e-08
 110    3.2921526882824e-08
 111    -3.1600207966628e-13
 112    3.2926791493519e-08
 113    1.6801278983661e-05
 114    -1.0288637267685e-05
 115    -1.0288637299386e-05
 116    -2.0000337744873e-14
 117    -7.5610609015107e-06
 118    1.3282571489401e-05
 119    -1.3282571565733e-05
 120    2.0756030079794e-05
 121    -6.508538003318e-05
 122    0.00058260750695728
 123    -0.0027318195186351
 124    0.0057088017642687
 125    -1.1771967369191e-05
 126    -1.1771967365292e-05
 127    -1.1771964517804e-05
 128    0.00017438459406817
 129    0.00017438459433289
 130    0.00017438458096597
 131    -0.0014560871008898
 132    -0.0014560870158388
 133    -0.0014560886176331
 134    -9.7821287489189e-13
 135    -8.7551728534987e-09
 136    -8.7551768886718e-09
 137    1.0376158539823e-13
 138    -8.7538599887521e-09
 139    -1.9621681079052e-12
 140    3.2965850065024e-08
 141    3.2965884196695e-08
 142    -3.1973153179512e-13
 143    3.2966139039827e-08
 144    -1.680129888979e-05
 145    1.0288654054531e-05
 146    1.0288654088911e-05
 147    2.0056650083606e-14
 148    7.5610945902741e-06
 149    -1.3282594920109e-05
 150    1.3282594999706e-05
 Sym= A
 Ene=               1
 Spin= Alpha
 Occup=    1.00000
   1    -0.040165744079529
   2    -0.00030074705073547
   3    6.4972186412477e-05
   4    7.2827027611749e-05
   5    2.4278249679624e-05
   6    -2.3245078584133e-11
   7    -2.3246271100139e-11
   8    -1.600190034667e-11
   9    2.5837573022197e-11
  10    2.5840435895451e-11
  11    1.8865703600417e-11
  12    -6.0990710444156e-11
  13    -6.0997044012462e-11
  14    -4.5655747617865e-11
  15    1.8386882181302e-10
  16    1.8389673803174e-10
  17    1.2437979851256e-10
  18    -1.3655827012162e-12
  19    -1.1858666752759e-05
  20    -1.1858666666249e-05
  21    -1.4498554198921e-13
  22    -1.185866660962e-05
  23    1.5854449464236e-12
  24    5.3616531591441e-05
  25    5.3616531177332e-05
  26    5.1607229577678e-13
  27    5.361652940323e-05
  28    -6.158060841819e-11
  29    -0.00020289060360316
  30    -0.00020289059976867
  31    -4.4295762685353e-12
  32    -0.00020289054910231
  33    4.1805529372591e-09
  34    -0.0002549835986356
  35    -0.00025498374942765
  36    1.6065433863338e-10
  37    -0.00025498750791378
  38    -1.6725876206859e-11
  39    8.7328293930402e-12
  40    8.7322439420413e-12
  41    2.6615518838424e-17
  42    4.4823948075467e-12
  43    -1.2668951497641e-11
  44    1.2669114395974e-11
  45      0.99682988541672
  46    0.0070999597658719
  47    -0.003148543900972
  48    0.0034898585801082
  49    -0.0070090834148295
  50    -1.0340946702581e-10
  51    -1.0339650003587e-10
  52    -5.8815205055102e-11
  53    1.1073586524625e-10
  54    1.1071261414256e-10
  55    1.0572940992138e-10
  56    -1.810866667974e-10
  57    -1.8106807262198e-10
  58    -1.7119219877585e-10
  59    2.6837545706954e-10
  60    2.6836426617258e-10
  61    2.0327421050788e-10
  62    5.9040799950058e-11
  63    1.141902792993e-05
  64    1.141902816688e-05
  65    -1.5352661783349e-12
  66    1.141896727164e-05
  67    -6.0045983082385e-11
  68    -5.3388478401451e-05
  69    -5.3388478329151e-05
  70    1.4897330172015e-12
  71    -5.3388415872169e-05
  72    1.6884342668507e-10
  73    0.00020220514900205
  74    0.00020220514580812
  75    2.6470021842991e-13
  76    0.00020220497324624
  77    -4.7193075443956e-09
  78    0.00025671157371999
  79    0.00025671172283537
  80    -1.3789588785281e-10
  81    0.00025671580669473
  82    -1.0178724163704e-11
  83    9.2574660570821e-12
  84    9.2644775056182e-12
  85    -3.0292172032854e-16
  86    -8.9633019112868e-12
  87    -1.2203118686578e-11
  88    1.2199154854368e-11
  89    1.9148436749528e-05
  90    -6.0044289915597e-05
  91    0.00053748194289729
  92    -0.0025202272840441
  93     0.005266627407985
  94    -1.2760540917867e-05
  95    -1.2760541068151e-05
  96    -1.276054003313e-05
  97    0.00018902810696954
  98    0.00018902810758498
  99    0.00018902810035316
 100    -0.0015783561359841
 101    -0.0015783560711461
 102    -0.0015783577190368
 103    3.1842130753144e-12
 104    -8.1065589463612e-09
 105    -8.1065534489183e-09
 106    -1.0334232510549e-13
 107    -8.1110294485886e-09
 108    -7.1421963925608e-12
 109    3.0453280257167e-08
 110    3.0453244072882e-08
 111    3.2773299199039e-13
 112    3.0463842156677e-08
 113    -1.8212035870423e-05
 114    1.1152552916613e-05
 115    1.1152552815016e-05
 116    2.6195820240265e-14
 117    8.1959533011749e-06
 118    -1.4397872342114e-05
 119    1.4397872254045e-05
 120    1.9148378152403e-05
 121    -6.0044204849889e-05
 122    0.00053748178206078
 123    -0.0025202270539201
 124    0.0052666274498101
 125    1.276047153199e-05
 126    1.2760471683865e-05
 127    1.2760472386625e-05
 128    -0.00018902786507905
 129    -0.00018902786570686
 130    -0.00018902785379996
 131    0.0015783558800251
 132    0.0015783558152254
 133    0.0015783573969676
 134    3.3493335864919e-12
 135    -8.0568317640512e-09
 136    -8.0568272322558e-09
 137    -1.0641473752829e-13
 138    -8.0548069294568e-09
 139    -1.382676591027e-11
 140    3.0393593226609e-08
 141    3.0393561196022e-08
 142    3.3288596441599e-13
 143    3.039737012137e-08
 144    1.8212171716886e-05
 145    -1.11526324144e-05
 146    -1.1152632316846e-05
 147    -2.7179466449107e-14
 148    -8.1960298799414e-06
 149    1.4397994536234e-05
 150    -1.439799444953e-05
 Sym= A
 Ene=               2
 Spin= Alpha
 Occup=    1.00000
   1      -0.3182681536041
   2       1.0371899855851
   3     0.036023224566739
   4    -0.013846605727235
   5     0.021218395094617
   6    3.3098739706371e-08
   7    3.3105046076727e-08
   8    2.8972490288785e-08
   9    -2.112046783472e-08
  10    -2.1121258948976e-08
  11    -2.3672709008794e-08
  12    2.2969435030994e-08
  13    2.2970283001852e-08
  14    2.5320837511401e-08
  15    -2.8140405830832e-08
  16    -2.8141593565359e-08
  17    -3.1669505663231e-08
  18    6.0548102847986e-11
  19    -0.00016777853308591
  20    -0.00016777860954375
  21    4.0437266679873e-10
  22    -0.00016777276822434
  23    1.2137547011479e-10
  24    0.0002590230850128
  25    0.00025902315829918
  26    -3.5980020920796e-10
  27    0.00025901812397078
  28    -4.0807219727813e-09
  29    -0.00072894887384275
  30    -0.00072894925284426
  31    9.3624131642073e-10
  32    -0.00072893691842837
  33    2.2890053750588e-07
  34    -0.00035137607956485
  35    -0.00035135674163837
  36    -2.2590245401114e-08
  37    -0.00035159534869574
  38    -2.0024326511031e-09
  39    1.776117636718e-09
  40    1.7766988277726e-09
  41    -2.733833405516e-14
  42    -1.991754906613e-09
  43    -1.7500281815075e-09
  44    1.7497928867672e-09
  45     0.016428523496317
  46    -0.053502621247372
  47    -0.001778060966363
  48    0.00031375256515109
  49    -0.00093423817623306
  50    2.5466770405698e-09
  51    2.5464035957899e-09
  52    2.0303251737254e-09
  53    -2.8781966990889e-09
  54    -2.8781587446821e-09
  55    -3.1926681722627e-09
  56    7.8201439885856e-09
  57    7.8202319096549e-09
  58    8.3289604618022e-09
  59    -2.8183099893163e-08
  60    -2.8183568168246e-08
  61    -2.9429407960639e-08
  62    -2.9019329059076e-10
  63    3.4138443277729e-05
  64    3.4138441066932e-05
  65    2.2212042456622e-11
  66    3.4138273734283e-05
  67    7.4016002283325e-11
  68    -0.00013575399897133
  69    -0.00013575400761121
  70    -2.0452910006604e-11
  71    -0.0001357536858754
  72    3.7225956097623e-09
  73    0.00051816276589213
  74    0.00051816302770576
  75    -2.0729017297017e-10
  76    0.00051815930728173
  77    -2.2661873014734e-07
  78    0.00089912054385751
  79    0.00089910151531849
  80    1.8615204457792e-08
  81    0.00089931756127747
  82    -2.9378627630313e-11
  83    1.9672601467559e-11
  84    1.9641223855211e-11
  85    4.2939242362155e-15
  86    -1.3085047293488e-10
  87    -4.4689186638965e-11
  88    4.4709139962257e-11
  89    -2.5967499490836e-05
  90    0.00013611325013683
  91    -0.0014758159321776
  92    0.0071044480970768
  93    -0.015104705910846
  94    -3.3050934431251e-05
  95    -3.3050940720988e-05
  96    -3.3050722034666e-05
  97    0.00052257492699192
  98    0.00052257491921621
  99    0.0005225737490808
 100    -0.0046186101301366
 101    -0.0046186193073141
 102    -0.0046186938146696
 103    4.1045513828225e-12
 104    -1.7255811032791e-06
 105    -1.7255818362765e-06
 106    1.6815541206182e-11
 107    -1.7254769642314e-06
 108    -1.0788228069471e-10
 109    1.0083367041805e-05
 110    1.0083373853177e-05
 111    -5.5562227219414e-11
 112    1.0082820013277e-05
 113    -5.0700626024025e-05
 114    3.1047561117729e-05
 115    3.1047554528447e-05
 116    -1.2454451086035e-12
 117    1.8405105363923e-05
 118    -4.008225057628e-05
 119    4.0082238416046e-05
 120    -2.5967974566382e-05
 121    0.00013611404413353
 122    -0.001475822395524
 123     0.007104467518898
 124    -0.015104723805755
 125    3.3052659234103e-05
 126    3.3052665624527e-05
 127    3.305259548106e-05
 128    -0.00052258364086918
 129    -0.00052258363347084
 130    -0.0005225833492446
 131    0.0046186102485714
 132    0.0046186194259175
 133    0.0046186943578576
 134    -2.1128322206662e-11
 135    -1.7261280157305e-06
 136    -1.7261287310489e-06
 137    1.6806332392236e-11
 138    -1.726097721643e-06
 139    1.3547996115569e-10
 140    1.0083673769212e-05
 141    1.0083680518981e-05
 142    -5.5560945539244e-11
 143    1.0083334482852e-05
 144    5.0698722460011e-05
 145    -3.1046504276709e-05
 146    -3.1046497658986e-05
 147    1.2439710904802e-12
 148    -1.8404342318798e-05
 149    4.0080764254766e-05
 150    -4.0080752042037e-05
 Sym= A
 Ene=               3
 Spin= Alpha
 Occup=    1.00000
   1    -0.016422503811883
   2     0.053554328034802
   3    0.0019406283314261
   4    -0.0011176117047699
   5    0.0012567247367948
   6    -1.6483014393164e-09
   7    -1.6478688052672e-09
   8    -9.5889675213488e-10
   9    7.7135961684177e-11
  10    7.6934169605421e-11
  11    7.9801157648268e-11
  12    -1.8644592255337e-09
  13    -1.8639660627879e-09
  14    -2.2457973615194e-09
  15    7.5232940416205e-09
  16    7.5216606255402e-09
  17    9.0637988376566e-09
  18    -4.2177032492739e-11
  19    1.6956259626346e-05
  20    1.6956255327647e-05
  21    1.8464566897191e-11
  22    1.6956566732809e-05
  23    6.4877949765791e-11
  24    -0.00010967171624936
  25    -0.00010967170786656
  26    -9.7271100802155e-12
  27    -0.00010967213916322
  28    -4.0426845058743e-09
  29    0.00044548600125616
  30    0.00044548578832052
  31    2.1146991065864e-10
  32    0.00044549006900029
  33    2.9795835210505e-07
  34    0.00086771108910119
  35    0.00086772789925893
  36    -1.6592812448582e-08
  37    0.0008674654030479
  38    -5.4210046165668e-10
  39    3.2748831581851e-10
  40    3.2752140133115e-10
  41    2.1188272826421e-15
  42    -1.59701131954e-10
  43    -4.1020265663504e-10
  44    4.1019246906659e-10
  45     -0.31826781959015
  46       1.0371926223884
  47     0.036031765617998
  48    -0.013888192121372
  49     0.021235220307577
  50    -3.4395980180039e-08
  51    -3.4390403766169e-08
  52    -2.4940114043891e-08
  53    7.7976478295438e-09
  54    7.7955839842216e-09
  55    1.1785059987899e-08
  56    -9.8708632218845e-09
  57    -9.8686864664244e-09
  58    -1.3826591483224e-08
  59    1.186568095624e-08
  60    1.1862156384445e-08
  61    1.7288737589397e-08
  62    6.092628323731e-09
  63    -0.00016515304947183
  64    -0.00016515297426736
  65    -4.0462593632826e-10
  66    -0.00016515046717286
  67    -5.7236571275498e-09
  68    0.00024636735980263
  69    0.00024636729268903
  70    3.5387387219627e-10
  71    0.00024636535879373
  72    1.5391001625346e-08
  73    -0.00067923262120288
  74    -0.00067923229915068
  75    -8.7041310219802e-10
  76    -0.00067923222448989
  77    -3.6063185526793e-07
  78    -0.00026030168234255
  79    -0.00026031878286355
  80    2.018268466386e-08
  81    -0.00026006774161306
  82    1.0599329942287e-09
  83    -6.2309157448315e-10
  84    -6.2247517237748e-10
  85    1.5362670947027e-15
  86    1.680776258453e-09
  87    1.1253523476972e-09
  88    -1.1257511528197e-09
  89    -2.8794087333801e-05
  90    0.00015092862726414
  91    -0.0016364497942237
  92    0.0078777249570016
  93    -0.016748760761078
  94    2.9807133369043e-05
  95    2.980712464117e-05
  96    2.9806895631802e-05
  97    -0.00047128733119939
  98    -0.00047128732962499
  99    -0.00047128656572266
 100     0.004165385426684
 101    0.0041653772161993
 102    0.0041652488614199
 103    2.2062955977362e-10
 104    -1.9142972850787e-06
 105    -1.9142965004839e-06
 106    -1.5237785374144e-11
 107    -1.9142428061598e-06
 108    -9.8122788480352e-10
 109    1.1183654526565e-05
 110    1.1183647899963e-05
 111    5.0318694224924e-11
 112    1.118330343047e-05
 113    4.5725783808876e-05
 114    -2.8000804783906e-05
 115    -2.8000812973603e-05
 116    -8.6475738742835e-13
 117    -1.6598960193189e-05
 118    3.6149204806246e-05
 119    -3.6149218572177e-05
 120    -2.8794146720803e-05
 121    0.0001509285340311
 122    -0.0016364530259257
 123    0.0078777303664794
 124    -0.016748752797966
 125    -2.9808380887296e-05
 126    -2.9808372009015e-05
 127    -2.9808341617755e-05
 128    0.00047129315359147
 129    0.00047129315131696
 130    0.00047129370288929
 131    -0.0041653911924778
 132    -0.0041653829822379
 133    -0.0041652554597619
 134    2.7269258518414e-10
 135    -1.9133610837769e-06
 136    -1.9133603514705e-06
 137    -1.5253546051009e-11
 138    -1.913330634414e-06
 139    -6.8018383654074e-10
 140    1.1180184673019e-05
 141    1.1180178221156e-05
 142    5.0454312297476e-11
 143    1.1180038774837e-05
 144    -4.5721648054706e-05
 145    2.799875189985e-05
 146    2.7998760146761e-05
 147    8.5073484876092e-13
 148    1.6597747139255e-05
 149    -3.6145942017434e-05
 150    3.6145955883856e-05
 Sym= A
 Ene=               4
 Spin= Alpha
 Occup=    1.00000
   1    1.2139566678409e-10
   2    -3.0092459117722e-10
   3    3.5555547068585e-10
   4    -6.6706525598263e-10
   5    2.4733066925522e-09
   6       0.7042793175047
   7     -0.64174793331096
   8    -0.062530628938726
   9     0.016707725171792
  10    -0.015224284438004
  11    -0.0014834221201191
  12    -0.0038754409700416
  13    0.0035313514006733
  14    0.00034408376553547
  15     0.004180879963937
  16    -0.0038096754631847
  17    -0.00037119415425344
  18    8.048185340975e-09
  19    -4.9500897795274e-08
  20    5.0328187949478e-08
  21    -7.0944408291375e-08
  22    -2.7766098408483e-09
  23    -8.3002092865375e-09
  24    5.3541351901303e-08
  25    -5.5261032652857e-08
  26    7.6760174502586e-08
  27    3.3197750999255e-09
  28    3.0168189137427e-08
  29    -1.8131982996455e-07
  30    1.9193913080933e-07
  31    -3.3827038556117e-07
  32    -1.3189947266876e-08
  33    -1.0030737067746e-06
  34    6.0962769718817e-06
  35    -6.6385599665149e-06
  36    1.2804472861107e-05
  37    5.4711635002058e-07
  38    2.1960366725993e-05
  39    0.00016919501175123
  40    -0.00016149202711943
  41    5.2142420510784e-05
  42    -1.373613626389e-10
  43    -0.00018179858774357
  44    -0.00015998772983267
  45    4.8904362704057e-11
  46    -1.5023838311513e-10
  47    7.1963558887682e-11
  48    2.3449644791736e-11
  49    -1.1592308390133e-09
  50     -0.19620620269203
  51      0.17878160379716
  52     0.017425988134438
  53    -0.0045271623307931
  54    0.0041251132709796
  55    0.0004020818816474
  56    0.00068982082737677
  57    -0.0006285511999385
  58    -6.1276987588049e-05
  59    0.00016189619984445
  60    -0.00014754658819142
  61    -1.4342428943157e-05
  62    -4.1542208783593e-09
  63    2.5285586740665e-08
  64    -2.7491087239378e-08
  65    5.0409493133561e-08
  66    2.3213659164536e-09
  67    4.0918224815907e-09
  68    -2.3833095356673e-08
  69    2.5931441153806e-08
  70    -5.1909652036555e-08
  71    -2.0917537953947e-09
  72    -2.0672324151174e-08
  73    1.1990333438603e-07
  74    -1.3085258439194e-07
  75    2.7620152259738e-07
  76    1.0354721257031e-08
  77    9.4292144685352e-07
  78    -5.9310427433939e-06
  79    6.4738956257648e-06
  80    -1.2360908466708e-05
  81    -5.3934121670452e-07
  82    -5.1139617097348e-06
  83    -3.6989819430999e-05
  84    3.4420485748076e-05
  85    -5.0969354761221e-06
  86    -9.7647275461904e-11
  87    4.417388177099e-05
  88    3.9695970218162e-05
  89     -1.4359673459e-11
  90    5.4114623363386e-12
  91    2.7360678998298e-10
  92    -8.9893044998897e-10
  93    1.4536973802357e-09
  94    -7.2967989778024e-05
  95    6.6490102890106e-05
  96    6.4779552140403e-06
  97    0.00037404130126464
  98    -0.00034083407326297
  99    -3.3206212200155e-05
 100    -0.00017276489296838
 101    0.00015743179857878
 102    1.5331621346594e-05
 103    -1.1437212877734e-06
 104    6.053192280718e-05
 105    -6.6429941063732e-05
 106    1.4212093359062e-05
 107    5.8984821739357e-06
 108    -9.6106339065396e-06
 109    -0.00019051208888755
 110    0.00020907549480761
 111    0.00011943681623909
 112    -1.856448767325e-05
 113    -3.200519250348e-06
 114    -2.1385842570083e-05
 115    1.9201088659447e-05
 116    2.0378222327931e-06
 117    3.0621255595241e-11
 118    2.9040602140904e-05
 119    2.6684578274695e-05
 120    9.5086602623718e-12
 121    9.1931585907117e-12
 122    -4.6220833899591e-10
 123    1.8099833530679e-09
 124    -3.4083106223676e-09
 125    -7.2970649637346e-05
 126    6.6492732476313e-05
 127    6.4780115731387e-06
 128    0.00037407133099201
 129    -0.00034086250048353
 130    -3.3208243663937e-05
 131    -0.00016716261669553
 132    0.00015231928857358
 133    1.4844319145618e-05
 134    1.1438208684868e-06
 135    -6.053295369134e-05
 136    6.6430982302408e-05
 137    -1.4210749937626e-05
 138    -5.898529720876e-06
 139    9.6101617068746e-06
 140    0.00019051921851327
 141    -0.00020908268045721
 142    -0.00011943965526517
 143    1.8564837296793e-05
 144    -3.1998713119793e-06
 145    -2.1383646141407e-05
 146    1.919955665513e-05
 147    2.035154053961e-06
 148    2.9480341970421e-11
 149    2.903583347932e-05
 150    2.6680150692766e-05
 Sym= A
 Ene=               5
 Spin= Alpha
 Occup=    1.00000
   1    -1.5225291921565e-09
   2    3.7927994206737e-09
   3    -4.3886544997646e-09
   4    8.242215838995e-09
   5    -3.0523167484445e-08
   6     -0.33434647826298
   7     -0.44263929334846
   8      0.77699334965019
   9    -0.0079317071864921
  10    -0.010500741924658
  11     0.018432620712851
  12    0.0018396737191684
  13     0.002435539720987
  14    -0.0042752343130474
  15    -0.0019843573445509
  16    -0.0026270992291011
  17     0.004611420500706
  18    -1.0017767106457e-07
  19    -9.1519847783789e-09
  20    -1.1392958323429e-09
  21    -5.7201819410807e-09
  22    3.4288678628709e-08
  23    1.0339911639211e-07
  24    1.5091007144719e-08
  25    6.3479994720812e-09
  26    6.1910709739262e-09
  27    -4.1144768561063e-08
  28    -3.7703275762717e-07
  29    -8.1497774101278e-08
  30    -5.1421403929563e-08
  31    -2.7307837704966e-08
  32    1.6462831558232e-07
  33    1.2563487435374e-05
  34    3.9104830358453e-06
  35    2.8822919596674e-06
  36    1.0340309216191e-06
  37    -6.852404640877e-06
  38    -0.00027286731576653
  39    -3.4555288143647e-05
  40    -6.1159090536236e-05
  41    4.1946860539533e-06
  42    6.3039193146962e-10
  43    0.00012175083473729
  44    -0.00014924822785108
  45    -6.0742714730492e-10
  46    1.8590158720236e-09
  47    -9.1896191228974e-10
  48    -2.4364819695407e-10
  49    1.4184415079563e-08
  50     0.093377808043325
  51      0.12360935487825
  52     -0.21699969497995
  53    0.0021547158028711
  54     0.002852306904966
  55    -0.0050073129858089
  56    -0.00032879783775151
  57    -0.00043521956590723
  58    0.00076406652367611
  59    -7.5343226933738e-05
  60    -9.9833031214789e-05
  61    0.00017518234225142
  62    5.1791388527872e-08
  63    1.5864466793604e-08
  64    1.1613667952599e-08
  65    4.0668697751047e-09
  66    -2.8861115491011e-08
  67    -5.1133183443885e-08
  68    -1.5110358249543e-08
  69    -1.109814993697e-08
  70    -4.1904497281788e-09
  71    2.6073645437754e-08
  72    2.5920419754387e-07
  73    7.8717069130668e-08
  74    5.8465661219876e-08
  75    2.231326822572e-08
  76    -1.2973058059851e-07
  77    -1.1817449473449e-05
  78    -3.9010224625483e-06
  79    -2.8992951115561e-06
  80    -9.9835851172967e-07
  81    6.7566570874957e-06
  82    6.3711567959995e-05
  83    1.3111481216999e-05
  84    1.8872366765759e-05
  85    -4.1258095517923e-07
  86    9.1427497918199e-10
  87    -2.4523205961905e-05
  88    3.1286859859248e-05
  89    1.205856738721e-10
  90    2.2045515694818e-10
  91    -6.5609148221953e-09
  92    2.1658569963922e-08
  93    -2.9904501310134e-08
  94    3.460599272721e-05