[Molden Format]
made by pyscf v[2.7.0]
[Atoms] (AU)
Ni   1   28     0.00000000000000     0.00000000000000     0.00000000000000
Ni   2   28     7.88015793943631     7.88015793943631     7.88015793943631
Ni   3   28     3.94007896971815     3.94007896971815     7.88015793943631
Ni   4   28    11.82023690915446    11.82023690915446    15.76031587887262
O   5   8     3.94007896971815     3.94007896971815     3.94007896971815
O   6   8    11.82023690915446    11.82023690915446    11.82023690915446
O   7   8     7.88015793943631     7.88015793943631    11.82023690915446
O   8   8    15.76031587887262    15.76031587887262    19.70039484859077
[GTO]
1 0
 s    8 1.00
          351535.72935  0.00023900118713546
          52695.809283  0.0018531440897204
          11992.468293  0.0096377482811891
          3394.5776689   0.039188295615695
          1105.3594585     0.1276492017934
          397.14677769    0.30336594963671
          154.27542974    0.43476507060194
           61.01872378    0.22936084921559
 s    4 1.00
          384.45559739  -0.024956057234426
          119.04879199   -0.11802646093842
          19.137012223    0.55542443479614
          8.1526718562    0.53290870398319
 s    2 1.00
          12.579408642   -0.37808523533197
          2.0870866081     1.1725666802369
 s    1 1.00
         0.86432568555                   1
 s    1 1.00
         0.13283169217                   1
 p    6 1.00
          1883.0907486  0.0026859082409862
           445.9515532   0.021816215326601
          143.08430815    0.10260154127892
          53.372920722    0.29610961202189
          21.321919357    0.47851295906874
          8.6643561994    0.27869541549053
 p    3 1.00
          34.144255211  -0.020736702335551
          4.7122455921    0.38861896640776
          1.8709231845    0.67329366995873
 p    1 1.00
         0.70370016267                   1
 p    1 1.00
              0.146588                   1
 d    4 1.00
          74.591603465   0.019859142269269
          21.590632752     0.1227271844904
           7.624614258    0.38208583108419
          2.8632206762    0.64198425524228
 d    1 1.00
          1.0311063388                   1
 d    1 1.00
         0.33060760691                   1
 d    1 1.00
                 0.106                   1
 f    1 1.00
                 2.174                   1

2 0
 s    8 1.00
          351535.72935  0.00023900118713546
          52695.809283  0.0018531440897204
          11992.468293  0.0096377482811891
          3394.5776689   0.039188295615695
          1105.3594585     0.1276492017934
          397.14677769    0.30336594963671
          154.27542974    0.43476507060194
           61.01872378    0.22936084921559
 s    4 1.00
          384.45559739  -0.024956057234426
          119.04879199   -0.11802646093842
          19.137012223    0.55542443479614
          8.1526718562    0.53290870398319
 s    2 1.00
          12.579408642   -0.37808523533197
          2.0870866081     1.1725666802369
 s    1 1.00
         0.86432568555                   1
 s    1 1.00
         0.13283169217                   1
 p    6 1.00
          1883.0907486  0.0026859082409862
           445.9515532   0.021816215326601
          143.08430815    0.10260154127892
          53.372920722    0.29610961202189
          21.321919357    0.47851295906874
          8.6643561994    0.27869541549053
 p    3 1.00
          34.144255211  -0.020736702335551
          4.7122455921    0.38861896640776
          1.8709231845    0.67329366995873
 p    1 1.00
         0.70370016267                   1
 p    1 1.00
              0.146588                   1
 d    4 1.00
          74.591603465   0.019859142269269
          21.590632752     0.1227271844904
           7.624614258    0.38208583108419
          2.8632206762    0.64198425524228
 d    1 1.00
          1.0311063388                   1
 d    1 1.00
         0.33060760691                   1
 d    1 1.00
                 0.106                   1
 f    1 1.00
                 2.174                   1

3 0
 s    8 1.00
          351535.72935  0.00023900118713546
          52695.809283  0.0018531440897204
          11992.468293  0.0096377482811891
          3394.5776689   0.039188295615695
          1105.3594585     0.1276492017934
          397.14677769    0.30336594963671
          154.27542974    0.43476507060194
           61.01872378    0.22936084921559
 s    4 1.00
          384.45559739  -0.024956057234426
          119.04879199   -0.11802646093842
          19.137012223    0.55542443479614
          8.1526718562    0.53290870398319
 s    2 1.00
          12.579408642   -0.37808523533197
          2.0870866081     1.1725666802369
 s    1 1.00
         0.86432568555                   1
 s    1 1.00
         0.13283169217                   1
 p    6 1.00
          1883.0907486  0.0026859082409862
           445.9515532   0.021816215326601
          143.08430815    0.10260154127892
          53.372920722    0.29610961202189
          21.321919357    0.47851295906874
          8.6643561994    0.27869541549053
 p    3 1.00
          34.144255211  -0.020736702335551
          4.7122455921    0.38861896640776
          1.8709231845    0.67329366995873
 p    1 1.00
         0.70370016267                   1
 p    1 1.00
              0.146588                   1
 d    4 1.00
          74.591603465   0.019859142269269
          21.590632752     0.1227271844904
           7.624614258    0.38208583108419
          2.8632206762    0.64198425524228
 d    1 1.00
          1.0311063388                   1
 d    1 1.00
         0.33060760691                   1
 d    1 1.00
                 0.106                   1
 f    1 1.00
                 2.174                   1

4 0
 s    8 1.00
          351535.72935  0.00023900118713546
          52695.809283  0.0018531440897204
          11992.468293  0.0096377482811891
          3394.5776689   0.039188295615695
          1105.3594585     0.1276492017934
          397.14677769    0.30336594963671
          154.27542974    0.43476507060194
           61.01872378    0.22936084921559
 s    4 1.00
          384.45559739  -0.024956057234426
          119.04879199   -0.11802646093842
          19.137012223    0.55542443479614
          8.1526718562    0.53290870398319
 s    2 1.00
          12.579408642   -0.37808523533197
          2.0870866081     1.1725666802369
 s    1 1.00
         0.86432568555                   1
 s    1 1.00
         0.13283169217                   1
 p    6 1.00
          1883.0907486  0.0026859082409862
           445.9515532   0.021816215326601
          143.08430815    0.10260154127892
          53.372920722    0.29610961202189
          21.321919357    0.47851295906874
          8.6643561994    0.27869541549053
 p    3 1.00
          34.144255211  -0.020736702335551
          4.7122455921    0.38861896640776
          1.8709231845    0.67329366995873
 p    1 1.00
         0.70370016267                   1
 p    1 1.00
              0.146588                   1
 d    4 1.00
          74.591603465   0.019859142269269
          21.590632752     0.1227271844904
           7.624614258    0.38208583108419
          2.8632206762    0.64198425524228
 d    1 1.00
          1.0311063388                   1
 d    1 1.00
         0.33060760691                   1
 d    1 1.00
                 0.106                   1
 f    1 1.00
                 2.174                   1

5 0
 s    6 1.00
          27032.382631  0.00057227335211155
          4052.3871392  0.0044353233492995
           922.3272271   0.023020107706038
          261.24070989   0.092822490667928
          85.354641351    0.29378500009671
          31.035035245    0.67401604501641
 s    2 1.00
          12.260860728    0.63839937025506
          4.9987076005    0.39534587125718
 s    1 1.00
          1.1703108158                   1
 s    1 1.00
         0.46474740994                   1
 s    1 1.00
         0.18504536357                   1
 p    4 1.00
          63.274954801   0.012018332222616
          14.627049379   0.083005421790056
          4.4501223456    0.31991743925964
          1.5275799647    0.70715542916104
 p    1 1.00
         0.52935117943                   1
 p    1 1.00
          0.1747842127                   1
 d    1 1.00
                 2.314                   1
 d    1 1.00
                 0.645                   1
 f    1 1.00
                 1.428                   1

6 0
 s    6 1.00
          27032.382631  0.00057227335211155
          4052.3871392  0.0044353233492995
           922.3272271   0.023020107706038
          261.24070989   0.092822490667928
          85.354641351    0.29378500009671
          31.035035245    0.67401604501641
 s    2 1.00
          12.260860728    0.63839937025506
          4.9987076005    0.39534587125718
 s    1 1.00
          1.1703108158                   1
 s    1 1.00
         0.46474740994                   1
 s    1 1.00
         0.18504536357                   1
 p    4 1.00
          63.274954801   0.012018332222616
          14.627049379   0.083005421790056
          4.4501223456    0.31991743925964
          1.5275799647    0.70715542916104
 p    1 1.00
         0.52935117943                   1
 p    1 1.00
          0.1747842127                   1
 d    1 1.00
                 2.314                   1
 d    1 1.00
                 0.645                   1
 f    1 1.00
                 1.428                   1

7 0
 s    6 1.00
          27032.382631  0.00057227335211155
          4052.3871392  0.0044353233492995
           922.3272271   0.023020107706038
          261.24070989   0.092822490667928
          85.354641351    0.29378500009671
          31.035035245    0.67401604501641
 s    2 1.00
          12.260860728    0.63839937025506
          4.9987076005    0.39534587125718
 s    1 1.00
          1.1703108158                   1
 s    1 1.00
         0.46474740994                   1
 s    1 1.00
         0.18504536357                   1
 p    4 1.00
          63.274954801   0.012018332222616
          14.627049379   0.083005421790056
          4.4501223456    0.31991743925964
          1.5275799647    0.70715542916104
 p    1 1.00
         0.52935117943                   1
 p    1 1.00
          0.1747842127                   1
 d    1 1.00
                 2.314                   1
 d    1 1.00
                 0.645                   1
 f    1 1.00
                 1.428                   1

8 0
 s    6 1.00
          27032.382631  0.00057227335211155
          4052.3871392  0.0044353233492995
           922.3272271   0.023020107706038
          261.24070989   0.092822490667928
          85.354641351    0.29378500009671
          31.035035245    0.67401604501641
 s    2 1.00
          12.260860728    0.63839937025506
          4.9987076005    0.39534587125718
 s    1 1.00
          1.1703108158                   1
 s    1 1.00
         0.46474740994                   1
 s    1 1.00
         0.18504536357                   1
 p    4 1.00
          63.274954801   0.012018332222616
          14.627049379   0.083005421790056
          4.4501223456    0.31991743925964
          1.5275799647    0.70715542916104
 p    1 1.00
         0.52935117943                   1
 p    1 1.00
          0.1747842127                   1
 d    1 1.00
                 2.314                   1
 d    1 1.00
                 0.645                   1
 f    1 1.00
                 1.428                   1

[5d]
[7f]
[9g]

[MO]
 Sym= A
 Ene=               0
 Spin= Alpha
 Occup=    1.00000
   1       0.5199410905166
   2    0.0036974554881189
   3    -0.0016772889373827
   4    0.0019358133399614
   5    -0.0038015861988517
   6    -1.117658375236e-08
   7    -1.1176583630296e-08
   8    2.7117138153995e-09
   9    6.2533555821686e-08
  10    6.2533555405312e-08
  11    -3.0010308547769e-08
  12    -2.8172486078827e-07
  13    -2.8172485990301e-07
  14    4.1915624272982e-07
  15    8.6436219795958e-06
  16    8.6436219772126e-06
  17    -1.5534955406774e-05
  18    1.8220484126259e-06
  19    1.0126667018379e-06
  20    1.012666703019e-06
  21    -2.5823508820102e-14
  22    2.6818303197351e-07
  23    -2.0095802841049e-06
  24    -4.5591605224437e-06
  25    -4.5591605234722e-06
  26    3.3095150055123e-14
  27    -2.9417453961665e-06
  28    1.7843531056862e-06
  29    1.7568097575217e-05
  30    1.7568097603583e-05
  31    -1.0428612363531e-13
  32    1.1257327771694e-05
  33    3.5030393599046e-05
  34    7.0520132766388e-07
  35    7.0519860053575e-07
  36    3.3145397087697e-12
  37    3.2450822686925e-05
  38    -4.2259797162032e-08
  39    -3.5519310638989e-08
  40    -3.5519310631077e-08
  41    4.6069526071177e-18
  42    -1.1454203005545e-08
  43    -4.1707990340716e-08
  44    4.1707990377385e-08
  45      0.46435829215115
  46    0.0033012715040734
  47    -0.0015014182078572
  48    0.0017420199188461
  49    -0.003405241974318
  50    -2.8520957783728e-08
  51    -2.8520958148973e-08
  52    6.9083704602115e-09
  53    1.5957476853118e-07
  54    1.5957476818242e-07
  55    -7.6576209673094e-08
  56    -7.1891294383662e-07
  57    -7.1891294263051e-07
  58    1.0696138293171e-06
  59    2.2057101395381e-05
  60    2.205710139888e-05
  61    -3.9642716751756e-05
  62     1.83560674749e-06
  63    -9.395551211067e-07
  64    -9.3955512268884e-07
  65    2.4727193389421e-14
  66    -1.270083543564e-06
  67    -2.6940754126482e-06
  68    4.2639374412964e-06
  69    4.2639374429756e-06
  70    -3.0314620326244e-14
  71    4.1470503176802e-06
  72    6.2955672551938e-06
  73    -1.6306496181027e-05
  74    -1.6306496215593e-05
  75    9.3562160356588e-14
  76    -1.4772387289242e-05
  77    -3.4863880189183e-05
  78    -6.5638001556705e-06
  79    -6.5637973713592e-06
  80    -3.1916554674267e-12
  81    -3.2203222798183e-05
  82    -1.0784018579726e-07
  83    -9.0639359285343e-08
  84    -9.0639359433191e-08
  85    -4.6541068942108e-17
  86    -2.9229261323406e-08
  87    -1.0643244439068e-07
  88    1.0643244422486e-07
  89      0.55264501484148
  90    0.0039319860464518
  91    -0.0017737957664526
  92    0.0020286483653464
  93    -0.0039963910658004
  94    1.1176086501999e-08
  95    1.1176086304458e-08
  96    -2.7119064809325e-09
  97    -6.253280218318e-08
  98    -6.2532801934372e-08
  99    3.0010705049464e-08
 100    2.8172347797832e-07
 101    2.8172347739149e-07
 102    -4.1915701690311e-07
 103    -8.6436179170344e-06
 104    -8.6436179146327e-06
 105    1.5534957801517e-05
 106    2.2689777852718e-06
 107    7.9357045755359e-07
 108    7.9357045933011e-07
 109    -3.0885376001618e-14
 110    5.2814581191997e-07
 111    -3.5998659413377e-06
 112    -3.5556390109015e-06
 113    -3.5556390128952e-06
 114    3.7924256976402e-14
 115    -4.2795938543029e-06
 116    1.0772681398278e-05
 117    1.3378982976672e-05
 118    1.3378983011247e-05
 119    -1.0430340448273e-13
 120    1.6975682994235e-05
 121    -0.00016077532297151
 122    1.9963090935407e-05
 123    1.9963088014358e-05
 124    3.1015231919449e-12
 125    4.6894050855311e-05
 126    4.2259828478683e-08
 127    3.5519285687599e-08
 128    3.5519285696399e-08
 129    -3.7424759150905e-18
 130    1.1454143457746e-08
 131    4.1708017728286e-08
 132    -4.1708017711229e-08
 133      0.45154248271053
 134    0.0032093651434587
 135    -0.0014635997310538
 136    0.0017056403333914
 137    -0.003328903143063
 138    2.8511064531915e-08
 139    2.8511064878469e-08
 140    -6.9132137860767e-09
 141    -1.5957014249068e-07
 142    -1.5957014220977e-07
 143    7.6578249072292e-08
 144    7.1890927801826e-07
 145    7.1890927700875e-07
 146    -1.0696152537266e-06
 147    -2.2057097022621e-05
 148    -2.2057097026706e-05
 149    3.9642717833312e-05
 150    1.6604754151205e-06
 151    -8.5370538104032e-07
 152    -8.5370538266517e-07
 153    2.334940099804e-14
 154    -1.3719256647045e-06
 155    -2.0708945626688e-06
 156    3.8706919179145e-06
 157    3.8706919202126e-06
 158    -2.8799988712165e-14
 159    4.6712850878866e-06
 160    2.7732956189147e-06
 161    -1.4664898073627e-05
 162    -1.4664898112219e-05
 163    8.9054248033694e-14
 164    -1.7013215477329e-05
 165    4.1867186378421e-05
 166    -1.411049066393e-05
 167    -1.4110487760628e-05
 168    -3.0941302800078e-12
 169    -3.7863203179923e-05
 170    1.0784021677777e-07
 171    9.0639334821943e-08
 172    9.0639334985259e-08
 173    1.5072388011791e-17
 174    2.9229298467832e-08
 175    1.0643245988194e-07
 176    -1.0643245973288e-07
 177    1.9937880020333e-05
 178    -6.2514369056113e-05
 179    0.00055935082200058
 180    -0.0026233021613201
 181    0.0055221918308864
 182    1.0202489036646e-06
 183    1.0202489061611e-06
 184    1.3880481967863e-06
 185    -1.3406470503554e-05
 186    -1.3406470507467e-05
 187    -1.9065863840049e-05
 188    0.00012106757474321
 189    0.0001210675762265
 190    0.00019542256365082
 191    -4.002744984518e-08
 192    1.4272723326687e-07
 193    1.4272723247378e-07
 194    -4.7633147269512e-16
 195    9.3397096814592e-08
 196    1.8270201468001e-07
 197    -4.7438095484327e-07
 198    -4.7438095347705e-07
 199    7.4650915926848e-16
 200    -2.2326005513622e-07
 201    1.6496254365666e-06
 202    -6.6815548769108e-07
 203    -6.6815548605662e-07
 204    -2.0834678650793e-17
 205    -6.0819584900514e-07
 206    6.9686763918883e-07
 207    -6.9686763625141e-07
 208    1.9878718201441e-05
 209    -6.2339723984147e-05
 210    0.00055854076248788
 211    -0.0026179737925219
 212    0.0053792569440649
 213    -9.3885206805382e-07
 214    -9.3885207000765e-07
 215    -7.8498475987819e-07
 216    1.4693976015135e-05
 217    1.4693976015992e-05
 218    1.218188846952e-05
 219    -0.00011249940653361
 220    -0.00011249940795424
 221    -9.8345132113955e-05
 222    9.691619611986e-07
 223    -3.2858000898497e-07
 224    -3.2858000959877e-07
 225    -9.7299275498703e-16
 226    -2.7288582320799e-07
 227    -3.1233138863949e-06
 228    1.0941457527135e-06
 229    1.0941457547784e-06
 230    3.1478685475282e-15
 231    8.1633639864096e-07
 232    -1.2430533585388e-06
 233    9.2675903661022e-07
 234    9.267590345269e-07
 235    -1.8830710439463e-16
 236    6.2442381051113e-07
 237    -1.2637393887134e-06
 238    1.2637393856756e-06
 239    1.9901901859414e-05
 240    -6.2408161918018e-05
 241    0.00055885819831877
 242    -0.0026200618218716
 243    0.0054352692866299
 244    9.069543227381e-07
 245    9.0695432486176e-07
 246    5.486600329592e-07
 247    -1.5198510023864e-05
 248    -1.5198510025967e-05
 249    -9.4842388184866e-06
 250    0.00010914174027345
 251    0.0001091417416818
 252    6.0303046149228e-05
 253    5.7368727789935e-07
 254    -1.4388689051341e-07
 255    -1.4388689081528e-07
 256    -8.6391416918127e-16
 257    -1.2935025511499e-07
 258    -1.8277735553677e-06
 259    4.7948045798362e-07
 260    4.7948045932117e-07
 261    2.7013437333316e-15
 262    4.0894811842737e-07
 263    1.0837277632792e-06
 264    -1.0280988528698e-06
 265    -1.0280988508732e-06
 266    1.5220090085773e-16
 267    -6.3078308187571e-07
 268    1.4858814931601e-06
 269    -1.4858814902488e-06
 270    1.9961063581829e-05
 271    -6.2582806710327e-05
 272    0.00055966825650219
 273    -0.0026253901871562
 274    0.0055782041697635
 275    -9.8835151962014e-07
 276    -9.8835152224436e-07
 277    -1.1517236376323e-06
 278    1.3911006289996e-05
 279    1.3911006294993e-05
 280    1.6368215001062e-05
 281    -0.00011770990948163
 282    -0.00011770991095248
 283    -0.0001573804782508
 284    -4.3550220227444e-07
 285    3.2742035141003e-07
 286    3.2742035075313e-07
 287    -4.9410661908032e-16
 288    2.369326906076e-07
 289    1.4782423209849e-06
 290    -1.0890462225299e-06
 291    -1.0890462217056e-06
 292    5.2204298486943e-16
 293    -6.3064848827911e-07
 294    -1.4902998011323e-06
 295    7.6949517780253e-07
 296    7.694951762225e-07
 297    -9.1533841550839e-17
 298    6.1455509625462e-07
 299    -9.1900961049386e-07
 300    9.1900960765872e-07
 Sym= A
 Ene=               1
 Spin= Alpha
 Occup=    1.00000
   1     -0.43472188636347
   2    -0.0031045739595576
   3    0.0013471189058218
   4    -0.0014273857764166
   5    0.0029500823387477
   6    -2.0614672802546e-08
   7    -2.0614672449943e-08
   8    5.0034467125325e-09
   9    1.1534741529165e-07
  10    1.1534741504618e-07
  11    -5.5358442191057e-08
  12    -5.1966660643744e-07
  13    -5.1966660603043e-07
  14    7.7317585040612e-07
  15    1.5943987406145e-05
  16    1.5943987404817e-05
  17    -2.8655723578601e-05
  18    -1.4254944224904e-06
  19    -1.1567055826392e-05
  20    -1.1567055827592e-05
  21    2.2329647551086e-14
  22    -1.0760962143422e-05
  23    1.3660526907602e-06
  24    5.223243125839e-05
  25    5.2232431260047e-05
  26    -3.0380616095904e-14
  27    4.9971495554059e-05
  28    -4.3775614090481e-06
  29    -0.00019928633352367
  30    -0.00019928633352825
  31    6.6881807112022e-14
  32    -0.00018644452121054
  33    0.0002822605914695
  34    -0.00011777722855775
  35    -0.00011777722851927
  36    -2.7341017614348e-13
  37    -0.00046351257536846
  38    -7.7952178191756e-08
  39    -6.5518720929505e-08
  40    -6.5518720977323e-08
  41    -2.4667062265679e-17
  42    -2.112816309438e-08
  43    -7.6934546405531e-08
  44    7.6934546371507e-08
  45      0.54820020129872
  46    0.0039136017956719
  47    -0.0017037396057482
  48     0.001819648995865
  49    -0.0037326732387622
  50    3.967843466807e-08
  51    3.9678434172076e-08
  52    -9.6446181282908e-09
  53    -2.2202228139162e-07
  54    -2.2202228150015e-07
  55    1.0655976068011e-07
  56    1.0002628006581e-06
  57    1.0002628014884e-06
  58    -1.4882204275367e-06
  59    -3.0689266091414e-05
  60    -3.0689266098654e-05
  61    5.5156895559921e-05
  62    2.199020084802e-06
  63    1.1335832660041e-05
  64    1.1335832658032e-05
  65    3.0139750373987e-14
  66    1.0962555958962e-05
  67    -3.4588295985513e-06
  68    -5.1170662622375e-05
  69    -5.1170662620695e-05
  70    -3.9046229968888e-14
  71    -5.1322397382749e-05
  72    1.4737312024298e-05
  73    0.0001948567309896
  74    0.00019485673098808
  75    8.1604348838657e-14
  76    0.00019234850638526
  77    -0.0004939590287533
  78    0.00013813548575802
  79    0.00013813548578618
  80    -5.08154336577e-13
  81    0.0004791483622889
  82    1.5004331662057e-07
  83    1.2611137279887e-07
  84    1.2611137258199e-07
  85    -4.3498567998957e-17
  86    4.0668348971847e-08
  87    1.4808490304258e-07
  88    -1.4808490306872e-07
  89     -0.48022444302502
  90    -0.0034308876992431
  91    0.0014813935242126
  92    -0.0015565516258519
  93     0.003221123842386
  94    2.0614956070178e-08
  95    2.0614956201527e-08
  96    -5.0033771409199e-09
  97    -1.1534741217371e-07
  98    -1.153474121867e-07
  99    5.5358507595231e-08
 100    5.1966590548945e-07
 101    5.1966590534664e-07
 102    -7.7317634183145e-07
 103    -1.5943983968315e-05
 104    -1.5943983966696e-05
 105    2.8655725944628e-05
 106    -2.0473180002067e-06
 107    -1.1262235917127e-05
 108    -1.1262235918798e-05
 109    2.7863096405593e-14
 110    -1.112261622948e-05
 111    3.5786835679067e-06
 112    5.0836202513007e-05
 113    5.0836202514905e-05
 114    -3.6840247475462e-14
 115    5.183285808315e-05
 116    -1.6883456008967e-05
 117    -0.00019345783289549
 118    -0.00019345783289811
 119    7.9418841777787e-14
 120    -0.00019440066961887
 121    0.00055469512130103
 122    -0.00014457180196798
 123    -0.0001445718020751
 124    -4.4034308874612e-13
 125    -0.0004836083056495
 126    7.7952154042451e-08
 127    6.5518740143302e-08
 128    6.5518740171654e-08
 129    2.5586756383193e-17
 130    2.1128201394763e-08
 131    7.6934515622928e-08
 132    -7.6934515653959e-08
 133       0.5245602085147
 134    0.0037440716729197
 135    -0.0016339797869052
 136    0.0017525433518675
 137    -0.0035918589270685
 138    -3.9689946431051e-08
 139    -3.9689945960097e-08
 140    9.6387661052948e-09
 141    2.2202760754794e-07
 142    2.2202760756026e-07
 143    -1.0655734933329e-07
 144    -1.0002668487855e-06
 145    -1.0002668493546e-06
 146    1.4882188900055e-06
 147    3.0689270640957e-05
 148    3.068927064767e-05
 149    -5.5156894713809e-05
 150    1.8759733547697e-06
 151    1.1494189555899e-05
 152    1.1494189554029e-05
 153    2.8062657888484e-14
 154    1.0774698317974e-05
 155    -2.3093126428088e-06
 156    -5.1896040831071e-05
 157    -5.1896040829348e-05
 158    -3.6828013395202e-14
 159    -5.0355396202011e-05
 160    8.240144639979e-06
 161    0.00019788481611285
 162    0.00019788481611043
 163    7.8193720813754e-14
 164    0.00018821508417222
 165    -0.00035242120665711
 166    0.00012421488586326
 167    0.00012421488593207
 168    -4.6592776711805e-13
 169    0.00046870798429435
 170    -1.5004326833768e-07
 171    -1.2611140942622e-07
 172    -1.2611140919803e-07
 173    7.1579782822019e-18
 174    -4.0668305760001e-08
 175    -1.4808486500693e-07
 176    1.4808486500942e-07
 177    1.518380914338e-06
 178    -4.7725542038992e-06
 179    4.3516409925362e-05
 180    -0.00020243431694139
 181    0.00028371706081127
 182    -1.2251395400375e-05
 183    -1.2251395400193e-05
 184    -1.2486167739828e-05
 185    0.00018101040062298
 186    0.00018101040062281
 187    0.00018339426575327
 188    -0.0014630987252549
 189    -0.0014630987252033
 190    -0.0016544718222862
 191    1.087990759345e-06
 192    -4.9826774267549e-07
 193    -4.9826774230199e-07
 194    3.7646361079455e-15
 195    -3.8862061814689e-07
 196    -3.560067667635e-06
 197    1.6583106116426e-06
 198    1.6583106111612e-06
 199    -1.1773953087628e-14
 200    1.1063115982518e-06
 201    -1.747348124345e-05
 202    1.0672886889083e-05
 203    1.0672886889744e-05
 204    8.5697150593053e-17
 205    7.8534038663979e-06
 206    -1.3655720061447e-05
 207    1.3655720061866e-05
 208    1.6006953245791e-06
 209    -5.0155456205036e-06
 210    4.4643485224538e-05
 211    -0.00020984795794547
 212    0.0004825897034851
 213    1.2138141739896e-05
 214    1.2138141739897e-05
 215    1.164709645534e-05
 216    -0.00018280174922795
 217    -0.00018280174922713
 218    -0.00017381625782162
 219    0.0014511772269553
 220    0.0014511772269314
 221    0.0015194031922662
 222    -3.1614364503904e-07
 223    1.5748559104018e-07
 224    1.5748559071249e-07
 225    4.1159301972892e-15
 226    1.2100459789523e-07
 227    1.0397517262298e-06
 228    -5.240598315574e-07
 229    -5.2405983065221e-07
 230    -1.2205334977313e-14
 231    -3.4012519674441e-07
 232    1.6907796909801e-05
 233    -1.1032694314241e-05
 234    -1.1032694314223e-05
 235    1.8300432151681e-16
 236    -7.8759826875445e-06
 237    1.4444435947721e-05
 238    -1.444443594787e-05
 239    1.6434598468598e-06
 240    -5.1417858991828e-06
 241    4.5229025758296e-05
 242    -0.00021369952788283
 243    0.00058590984733266
 244    -1.2196980164167e-05
 245    -1.2196980164165e-05
 246    -1.2083020066545e-05
 247    0.00018187108753191
 248    0.00018187108753077
 249    0.00017879233176113
 250    -0.0014573707651139
 251    -0.0014573707650963
 252    -0.001589575477202
 253    -1.0456347758955e-06
 254    4.9816982081335e-07
 255    4.9816982064417e-07
 256    4.1666572465458e-15
 257    3.8576980048388e-07
 258    3.4295002042986e-06
 259    -1.6578690067744e-06
 260    -1.6578690061865e-06
 261    -1.2214398970238e-14
 262    -1.091592183328e-06
 263    -1.7201688381999e-05
 264    1.0845763257633e-05
 265    1.0845763257445e-05
 266    -1.6944257218945e-16
 267    7.8642523790076e-06
 268    -1.4034673512319e-05
 269    1.403467351232e-05
 270    1.5611453285014e-06
 271    -4.8987942426386e-06
 272    4.4101949171013e-05
 273    -0.00020628588350786
 274    0.00038703720198543
 275    1.231023352337e-05
 276    1.2310233523335e-05
 277    1.2922091207979e-05
 278    -0.00018007973747717
 279    -0.0001800797374772
 280    -0.0001883703390344
 281    0.0014692922629966
 282     0.001469292262952
 283    0.0017246441069324
 284    3.5849961144812e-07
 285    -1.5758353030222e-07
 286    -1.575835299687e-07
 287    3.7421920254356e-15
 288    -1.2385533941941e-07
 289    -1.1703193312719e-06
 290    5.2450148020809e-07
 291    5.2450147971213e-07
 292    -1.1662126925559e-14
 293    3.5484435104309e-07
 294    1.7767372744152e-05
 295    -1.0485955960694e-05
 296    -1.048595596125e-05
 297    -3.7727258840885e-17
 298    -7.8416735780268e-06
 299     1.32459577293e-05
 300    -1.3245957729506e-05
 Sym= A
 Ene=               2
 Spin= Alpha
 Occup=    1.00000
   1      0.73208581834579
   2    0.0052488846321902
   3    -0.0021657219279364
   4    0.0020950460741678
   5    -0.0043887354189455
   6    2.9322988768348e-09
   7    2.9322986487498e-09
   8    -7.1256686901477e-10
   9    -1.6410851216816e-08
  10    -1.6410851182063e-08
  11    7.8769896744862e-09
  12    7.3937142884335e-08
  13    7.3937142727802e-08
  14    -1.1000581114897e-07
  15    -2.2684844217237e-06
  16    -2.2684844212198e-06
  17    4.0770464336897e-06
  18    9.7358902785861e-06
  19    -4.332509428129e-06
  20    -4.3325094257357e-06
  21    -3.5336116200409e-14
  22    5.9633081619739e-06
  23    -3.4420533180231e-05
  24    1.9872875652512e-05
  25    1.9872875647819e-05
  26    4.0583085448515e-14
  27    -3.0558358711102e-05
  28     0.000194218134478
  29    -8.3598750291879e-05
  30    -8.3598750267494e-05
  31    -7.3440300739184e-14
  32    0.00012971513163675
  33    -0.0042352746497956
  34    0.00041954029897086
  35    0.00041954029829258
  36    1.3821754484952e-12
  37    0.00032750659720851
  38    1.1090726485611e-08
  39    9.3217736828043e-09
  40    9.3217737466524e-09
  41    4.2410893222178e-17
  42    3.0059394462561e-09
  43    1.0946037724136e-08
  44    -1.0946037661287e-08
  45    -0.0083436288410669
  46    -5.9932018521788e-05
  47    2.4351150945065e-05
  48    -2.2339615389816e-05