[Molden Format]
made by pyscf v[2.8.0]
[Atoms] (AU)
Ni   1   18     1.97003948485908     1.97003948485908     1.97003948485908
Ni   2   18     9.85019742429539     9.85019742429539     9.85019742429539
O   3   6     5.91011845457723     5.91011845457723     5.91011845457723
O   4   6    13.79027639401354    13.79027639401354    13.79027639401354
[GTO]
1 0
 s    5 1.00
           10.07742776  -0.086835022047937
            5.84773585  -0.095903685028432
            2.49403283    0.46991871789322
            0.98835485    0.52127781030825
            0.34497824    0.19980772605381
 s    5 1.00
           10.07742776  -0.055380256268536
            5.84773585   -0.15598312898178
            2.49403283   -0.10540770191139
            0.98835485    -1.1775559082194
            0.34497824     0.6284312633313
 s    5 1.00
           10.07742776  0.0011915424366945
            5.84773585  -0.025720725603947
            2.49403283    0.20197864389862
            0.98835485   -0.32173365559475
            0.34497824     1.1611958853048
 s    5 1.00
           10.07742776    0.27184471914533
            5.84773585    0.73796544033067
            2.49403283   -0.73691551203506
            0.98835485    0.55803542001875
            0.34497824    0.41877878952057
 p    5 1.00
           10.07742776   -0.12750058189767
            5.84773585    0.23617194453988
            2.49403283     0.4467209080958
            0.98835485    0.37875039506176
            0.34497824    0.20276441303294
 p    5 1.00
           10.07742776  -0.070779520392839
            5.84773585    0.11875146132058
            2.49403283    0.60819117005229
            0.98835485    0.14684758597967
            0.34497824    0.37838351280256
 p    5 1.00
           10.07742776   0.028607180580373
            5.84773585  -0.0022917940244503
            2.49403283    0.40890008327435
            0.98835485    0.16908987530899
            0.34497824    -1.1320497337993
 d    5 1.00
           10.07742776   0.093294374780755
            5.84773585    0.26183261306695
            2.49403283    0.39361868576268
            0.98835485     0.2976443901192
            0.34497824    0.27230762480506
 d    5 1.00
           10.07742776   -0.11376814207537
            5.84773585   -0.31678030007156
            2.49403283   -0.48587555523743
            0.98835485   -0.33821048304157
            0.34497824    0.46566194756292
 d    5 1.00
           10.07742776   0.043173844695786
            5.84773585   0.046336965357534
            2.49403283    0.32318441251308
            0.98835485   -0.39625696010854
            0.34497824   -0.78697162717096
 f    5 1.00
           10.07742776  -0.015792251960243
            5.84773585   0.045386474223018
            2.49403283  0.0052050340574476
            0.98835485    0.42502844271748
            0.34497824    0.69348040818872

2 0
 s    5 1.00
           10.07742776  -0.086835022047937
            5.84773585  -0.095903685028432
            2.49403283    0.46991871789322
            0.98835485    0.52127781030825
            0.34497824    0.19980772605381
 s    5 1.00
           10.07742776  -0.055380256268536
            5.84773585   -0.15598312898178
            2.49403283   -0.10540770191139
            0.98835485    -1.1775559082194
            0.34497824     0.6284312633313
 s    5 1.00
           10.07742776  0.0011915424366945
            5.84773585  -0.025720725603947
            2.49403283    0.20197864389862
            0.98835485   -0.32173365559475
            0.34497824     1.1611958853048
 s    5 1.00
           10.07742776    0.27184471914533
            5.84773585    0.73796544033067
            2.49403283   -0.73691551203506
            0.98835485    0.55803542001875
            0.34497824    0.41877878952057
 p    5 1.00
           10.07742776   -0.12750058189767
            5.84773585    0.23617194453988
            2.49403283     0.4467209080958
            0.98835485    0.37875039506176
            0.34497824    0.20276441303294
 p    5 1.00
           10.07742776  -0.070779520392839
            5.84773585    0.11875146132058
            2.49403283    0.60819117005229
            0.98835485    0.14684758597967
            0.34497824    0.37838351280256
 p    5 1.00
           10.07742776   0.028607180580373
            5.84773585  -0.0022917940244503
            2.49403283    0.40890008327435
            0.98835485    0.16908987530899
            0.34497824    -1.1320497337993
 d    5 1.00
           10.07742776   0.093294374780755
            5.84773585    0.26183261306695
            2.49403283    0.39361868576268
            0.98835485     0.2976443901192
            0.34497824    0.27230762480506
 d    5 1.00
           10.07742776   -0.11376814207537
            5.84773585   -0.31678030007156
            2.49403283   -0.48587555523743
            0.98835485   -0.33821048304157
            0.34497824    0.46566194756292
 d    5 1.00
           10.07742776   0.043173844695786
            5.84773585   0.046336965357534
            2.49403283    0.32318441251308
            0.98835485   -0.39625696010854
            0.34497824   -0.78697162717096
 f    5 1.00
           10.07742776  -0.015792251960243
            5.84773585   0.045386474223018
            2.49403283  0.0052050340574476
            0.98835485    0.42502844271748
            0.34497824    0.69348040818872

3 0
 s    6 1.00
       12.015954705512  -0.061844226660387
        5.108150287385   -0.13315785563869
        2.048398039874      0.121422069274
        0.832381575582    0.47568168138593
        0.352316246455    0.46272457492216
         0.14297733088   0.095262649829276
 s    6 1.00
       12.015954705512    0.15859271745704
        5.108150287385    0.26750937454032
        2.048398039874   -0.12962804236994
        0.832381575582    -1.3815531883976
        0.352316246455    0.45055369158969
         0.14297733088    0.93411351629139
 s    6 1.00
       12.015954705512    0.17469268477106
        5.108150287385    0.34355445715351
        2.048398039874   -0.28815192910473
        0.832381575582    -1.8534746110137
        0.352316246455     3.0791654312782
         0.14297733088    -2.2211208621289
 p    6 1.00
       12.015954705512   0.037492720310186
        5.108150287385    0.12406828272606
        2.048398039874    0.25761486982013
        0.832381575582    0.36179838574496
        0.352316246455    0.30236257719025
         0.14297733088    0.17753391931446
 p    6 1.00
       12.015954705512  -0.033944352189603
        5.108150287385   -0.11968118310925
        2.048398039874   -0.21205643308682
        0.832381575582   -0.46998901622368
        0.352316246455    0.48107558887885
         0.14297733088    0.71188304760957
 p    6 1.00
       12.015954705512  -0.001862205574729
        5.108150287385   0.030958244103013
        2.048398039874  0.0040424961410035
        0.832381575582   -0.06872863368185
        0.352316246455      1.666962400196
         0.14297733088    -1.3705859943115
 d    6 1.00
       12.015954705512  0.0088155539821385
        5.108150287385   0.040595431873597
        2.048398039874    0.17299813625581
        0.832381575582    0.63307446916184
        0.352316246455    0.18316668591864
         0.14297733088    0.18953153192279

4 0
 s    6 1.00
       12.015954705512  -0.061844226660387
        5.108150287385   -0.13315785563869
        2.048398039874      0.121422069274
        0.832381575582    0.47568168138593
        0.352316246455    0.46272457492216
         0.14297733088   0.095262649829276
 s    6 1.00
       12.015954705512    0.15859271745704
        5.108150287385    0.26750937454032
        2.048398039874   -0.12962804236994
        0.832381575582    -1.3815531883976
        0.352316246455    0.45055369158969
         0.14297733088    0.93411351629139
 s    6 1.00
       12.015954705512    0.17469268477106
        5.108150287385    0.34355445715351
        2.048398039874   -0.28815192910473
        0.832381575582    -1.8534746110137
        0.352316246455     3.0791654312782
         0.14297733088    -2.2211208621289
 p    6 1.00
       12.015954705512   0.037492720310186
        5.108150287385    0.12406828272606
        2.048398039874    0.25761486982013
        0.832381575582    0.36179838574496
        0.352316246455    0.30236257719025
         0.14297733088    0.17753391931446
 p    6 1.00
       12.015954705512  -0.033944352189603
        5.108150287385   -0.11968118310925
        2.048398039874   -0.21205643308682
        0.832381575582   -0.46998901622368
        0.352316246455    0.48107558887885
         0.14297733088    0.71188304760957
 p    6 1.00
       12.015954705512  -0.001862205574729
        5.108150287385   0.030958244103013
        2.048398039874  0.0040424961410035
        0.832381575582   -0.06872863368185
        0.352316246455      1.666962400196
         0.14297733088    -1.3705859943115
 d    6 1.00
       12.015954705512  0.0088155539821385
        5.108150287385   0.040595431873597
        2.048398039874    0.17299813625581
        0.832381575582    0.63307446916184
        0.352316246455    0.18316668591864
         0.14297733088    0.18953153192279

[5d]
[7f]
[9g]
[core]
1 : 10
2 : 10
3 : 2
4 : 2

[MO]
 Sym= A
 Ene=               0
 Spin= Alpha
 Occup=    1.00000
   1    3.278098233812e-07
   2    1.5073059824639e-09
   3    -1.7417128480437e-07
   4    -1.2406801024596e-08
   5    4.5052251717592e-09
   6    2.4411351120251e-08
   7    -2.891486525175e-08
   8    -3.2475326944062e-09
   9    -1.7596570833661e-08
  10    2.0842731606442e-08
  11    2.5017295619075e-09
  12    1.3559598747605e-08
  13    -1.6061266756788e-08
  14     0.052504549395098
  15      0.35920946585444
  16     0.066280406966347
  17     0.020868511269459
  18     -0.42549092885586
  19     -0.02875075227214
  20    -0.074210872967091
  21    -0.013693315706349
  22    -0.011427638673767
  23     0.087904474370776
  24    -0.016880402224571
  25    -0.066496288033466
  26    -0.012269753027502
  27    -0.0067093793823951
  28     0.078766261721366
  29    -5.2449545765441e-09
  30    1.3318659003364e-08
  31    5.9483319008139e-09
  32    6.5246407436025e-09
  33    -5.1709757532049e-13
  34    1.1349275998642e-08
  35    -1.0208253019479e-08
  36    -3.4948831398181e-07
  37    -3.2110842354248e-08
  38    2.3243236112482e-07
  39    -6.4075093381694e-09
  40    -4.4970923613936e-09
  41    -2.4379374783394e-08
  42    2.8879887363513e-08
  43    3.2454481582256e-09
  44    1.7589289956538e-08
  45    -2.0835845745419e-08
  46    -2.4964601097545e-09
  47    -1.3537282057775e-08
  48    1.6036050995472e-08
  49     0.052410771498248
  50       0.3590617456052
  51     0.066250677011704
  52     0.020833402858311
  53     -0.42530944348041
  54    -0.028728100358238
  55    -0.074170002948563
  56    -0.013685043058639
  57    -0.011419137623557
  58     0.087854321942565
  59     -0.01685775374309
  60    -0.066465788452282
  61    -0.012263608886291
  62    -0.006700910245888
  63     0.078728822573264
  64    5.2573378948946e-09
  65    -1.3309912407355e-08
  66    -5.9369756845175e-09
  67    -6.5212466163265e-09
  68    6.5166160535912e-13
  69    -1.1345685249509e-08
  70    1.0213077367075e-08
  71    1.1067943712082e-08
  72    -9.1983741278079e-09
  73    7.9335104101822e-09
  74    -8.9658563689025e-06
  75    -3.8565488861808e-05
  76    4.5983902556187e-05
  77    -5.2788280399212e-07
  78    -2.0543852792703e-06
  79    2.4226079519712e-06
  80    -4.4213572203637e-07
  81    -2.0380851483106e-06
  82    2.4419970691754e-06
  83    0.0013090853737843
  84    -0.0069840414274736
  85    -0.0012886529334192
  86    0.00052033685973211
  87    0.0082726764424737
  88    1.1067048494728e-08
  89    -9.198303355909e-09
  90    7.9335862955205e-09
  91    8.9659334692622e-06
  92    3.856580447163e-05
  93    -4.5984260068223e-05
  94    5.278880362988e-07
  95    2.0544065092699e-06
  96    -2.4226322941811e-06
  97    4.4213856315589e-07
  98    2.0380968317751e-06
  99    -2.4420097848364e-06
 100    0.0013090893458513
 101    -0.006984051860481
 102    -0.0012886548584192
 103    0.00052033843860551
 104    0.0082726888006549
 Sym= A
 Ene=               1
 Spin= Alpha
 Occup=    1.00000
   1    1.555469254451e-09
   2    -2.6199587492199e-08
   3    4.2008084339355e-08
   4    -1.7468678298264e-08
   5    3.0787828707589e-08
   6    -1.9294696492341e-08
   7    -1.1494001249905e-08
   8    -2.219221793658e-08
   9    1.3907424441414e-08
  10    8.2846524223703e-09
  11    1.7102650558665e-08
  12    -1.0718976312785e-08
  13    -6.3848257497808e-09
  14     0.020870024507206
  15     -0.28392015699167
  16      0.45304617738778
  17    -0.052503719396804
  18     -0.16912448534923
  19    -0.011428025390541
  20     0.058656313083212
  21    -0.093596988901426
  22     0.028750714689072
  23     0.034940332691292
  24    -0.0067097515973893
  25     0.052558821420939
  26    -0.083867184531867
  27     0.016880172925246
  28     0.031308084845433
  29    -2.0848747087277e-09
  30    -5.4420333156211e-09
  31    1.3100327777672e-08
  32    -1.641553571559e-08
  33    -5.2622844488208e-13
  34    2.8494337980442e-09
  35    -5.7194197245187e-09
  36    -4.1123401508232e-08
  37    -2.8232957486194e-08
  38    6.7438581634398e-08
  39    -1.7033595605769e-08
  40    -3.0749880271713e-08
  41    1.9272204531134e-08
  42    1.1479743809738e-08
  43    2.2184188507569e-08
  44    -1.3902852006307e-08
  45    -8.2818810928826e-09
  46    -1.7075050679511e-08
  47    1.0701812530883e-08
  48    6.3739405509998e-09
  49     0.020832116643736
  50     -0.28380534013342
  51      0.45285876593252
  52    -0.052413266102177
  53     -0.16905163849402
  54    -0.011418873020202
  55     0.058624585056394
  56    -0.093545178103455
  57      0.02872884373104
  58     0.034920186546367
  59    -0.0067005914988689
  60     0.052535121528566
  61    -0.083828504258507
  62     0.016858343248883
  63      0.03129305485178
  64    2.0900991736629e-09
  65    5.4493931212614e-09
  66    -1.3099630347302e-08
  67    1.6406955324397e-08
  68    5.5359252436424e-13
  69    -2.8607268586626e-09
  70    5.7084820416175e-09
  71    1.6157203211035e-08
  72    -1.474496499274e-08
  73    1.2588224194955e-08
  74    -4.7882385945207e-05
  75    2.8859872979785e-05
  76    1.8924912262922e-05
  77    -2.5190476606152e-06
  78    1.4923017312106e-06
  79    1.0166100648983e-06
  80    -2.5475712330697e-06
  81    1.5514432933918e-06
  82    9.9380015907754e-07
  83    0.00052033683667272
  84    0.0055202320634663
  85    -0.0088084899929022
  86    -0.001309090874864
  87     0.003288226887783
  88    1.6156505944615e-08
  89    -1.4744678957717e-08
  90    1.2588147300827e-08
  91    4.7882771559996e-05
  92    -2.8860107329094e-05
  93    -1.892506226779e-05
  94    2.5190738850375e-06
  95    -1.4923176952428e-06
  96    -1.0166202501575e-06
  97    2.5475852135244e-06
  98    -1.5514518366825e-06
  99    -9.9380558282044e-07
 100    0.00052033841555898
 101    0.0055202403097759
 102    -0.0088085031513027
 103    -0.0013090948472311
 104    0.0032882317998798
 Sym= A
 Ene=               2
 Spin= Alpha
 Occup=    1.00000
   1    0.0078796070413134
   2     0.011816199686705
   3    -0.020053382457996
   4    0.0065052784533237
   5    1.9668065092639e-08
   6    1.9668923385175e-08
   7    1.9666337934613e-08
   8    -7.1440141717879e-09
   9    -7.1445454118869e-09
  10    -7.1445163228758e-09
  11    1.2600577792461e-08
  12    1.2601079684641e-08
  13    1.2598024484675e-08
  14    4.054906380491e-06
  15       -0.328999196822
  16      -0.3290024357784
  17    1.6051651642446e-06
  18     -0.32901319790765
  19    -9.676292859526e-07
  20     0.063069532556332
  21     0.063070530451834
  22    -4.0579295497571e-07
  23     0.063073367842855
  24    -9.9375409897299e-07
  25     0.060298365257025
  26      0.06029905254013
  27    -3.7028791005649e-07
  28     0.060301240697197
  29    1.0378719339917e-08
  30    -6.3555522415246e-09
  31    -6.3554875197172e-09
  32    3.4630240313821e-13
  33    -1.3133808121368e-08
  34    8.2050043857863e-09
  35    -8.2043520410565e-09
  36    0.0078500556768267
  37     0.011814331530969
  38     -0.02003462530097
  39    0.0065052566301877
  40    -1.9591852506551e-08
  41    -1.9590745042859e-08
  42    -1.9593930680712e-08
  43    7.1103107733295e-09
  44    7.1103118250562e-09
  45    7.1117316004009e-09
  46    -1.2552900224095e-08
  47    -1.2551973038741e-08
  48    -1.2553010152001e-08
  49    -4.1778540228073e-06
  50     -0.32894581723444
  51     -0.32894048270864
  52    -1.0919795912404e-06
  53     -0.32893297786527
  54    1.0122568863799e-06
  55     0.063056862963698
  56     0.063055479694757
  57    2.4482303350508e-07
  58     0.063053239941686
  59    9.9920729087635e-07
  60     0.060287879757422
  61     0.060286799631459
  62    2.8199619022683e-07
  63     0.060285222578569
  64    -1.0393665872446e-08
  65    6.3663295824751e-09
  66    6.3664829656516e-09
  67    -1.8346476535059e-13
  68    1.3139921525638e-08
  69    -8.2175345293948e-09
  70    8.2174329274048e-09
  71    -0.015799040770364
  72     0.011048647714785
  73    -0.0098925933854342
  74    -2.3269370840032e-05
  75    -2.5600689140886e-05
  76    -1.8233261000857e-05
  77    -2.257963305135e-06
  78    -2.3903942772417e-06
  79    -1.9676995051356e-06
  80    -7.3801675510277e-07
  81     -8.5418131903e-07
  82    -4.9009663789273e-07
  83    1.8192659111308e-09
  84     0.006736454848804
  85    0.0067364353509957
  86    1.7439491449493e-09
  87    0.0067364658170852
  88    -0.015798992061788
  89     0.011048611212528
  90    -0.0098925641021486
  91    2.327000883681e-05
  92    2.5601344521293e-05
  93    1.8233859171235e-05
  94    2.2580107974092e-06
  95    2.3904426197417e-06
  96    1.9677444915058e-06
  97    7.380426917307e-07
  98    8.5420814270375e-07
  99    4.9012090121665e-07
 100    1.8192183236983e-09
 101    0.0067364649701726
 102     0.006736445472281
 103    1.7439646291397e-09
 104    0.0067364759386409
 Sym= A
 Ene=               3
 Spin= Alpha
 Occup=    1.00000
   1    -1.1100446295422e-07
   2    6.9324343435718e-08
   3    -3.3547840520834e-08
   4    4.2682200390801e-08
   5    6.8295949481711e-08
   6    -6.8925416924745e-08
   7    6.2868353492162e-10
   8    -1.4220611228748e-08
   9    1.4351990824921e-08
  10    -1.3136899963481e-10
  11    4.9358559701033e-08
  12    -4.9813389303382e-08
  13    4.542300661907e-10
  14    -0.0016346403635788
  15     -0.33299818986713
  16      0.32995498890099
  17     -0.20590163075637
  18    0.0030371988331932
  19    0.00039215169672587
  20     0.092360142054913
  21    -0.091516521958214
  22     0.049395120260071
  23    -0.00084254936533402
  24    0.0003942213913682
  25       0.0687248275276
  26    -0.068096871988451
  27      0.04965359848877
  28    -0.00062684893011117
  29    -2.2337540791599e-10
  30    7.3086643625711e-09
  31    -7.6503561359697e-09
  32    -1.8823714540257e-08
  33    -2.9676539617587e-13
  34    -2.5016812811107e-08
  35    -2.5035329057733e-08
  36    2.0961705635015e-07
  37    8.5657561847155e-08
  38    -2.3048232454507e-07
  39    4.337699032626e-08
  40    6.8307410899048e-08
  41    -6.8937851562109e-08
  42    6.280534607459e-10
  43    -1.4228744800293e-08
  44    1.4360550181364e-08
  45    -1.3113478384351e-10
  46    4.9364491648394e-08
  47    -4.9819892343577e-08
  48    4.5441240838128e-10
  49    0.0016349286132988
  50      0.33318685180743
  51     -0.33015216401974
  52      0.20591825052955
  53    -0.0030418409821943
  54    -0.00039221400908344
  55    -0.092398799374037
  56     0.091556783820192
  57    -0.049409145481795
  58    0.00084345318771094
  59    -0.00039428407017328
  60    -0.068759618875662
  61     0.068133217643842
  62    -0.049660406992101
  63    0.00062770316243742
  64    -2.2359299583096e-10
  65    7.3036585201371e-09
  66    -7.6452766998351e-09
  67    -1.8831952131947e-08
  68    -1.7442883216838e-13
  69    -2.5017280652572e-08
  70    -2.5035610488935e-08
  71    -1.0614849928117e-07
  72    7.3660324856299e-08
  73    -6.573742942079e-08
  74     -0.17420674129255
  75      0.17581181100188
  76    -0.0016044406081825
  77    -0.0094257585243026
  78    0.0095126746952566
  79    -8.6817563395947e-05
  80    -0.0089929174183125
  81    0.0090757225565532
  82    -8.2814413676715e-05
  83    3.655825333065e-09
  84    -1.8590675438674e-06
  85    1.9467401257264e-06
  86    1.5901125604932e-07
  87    4.7196099549923e-08
  88    -1.0614785459533e-07
  89    7.365983409741e-08
  90    -6.5737039149106e-08
  91      0.17420813344519
  92     -0.17581321597891
  93     0.001604453416529
  94    0.0094258538490935
  95    -0.0095127708960142
  96    8.6818440060506e-05
  97    0.0089929672734613
  98    -0.0090757728722384
  99    8.2814873081928e-05
 100    3.6559523760007e-09
 101    -1.8590701487392e-06
 102    1.9467428822069e-06
 103     1.59011765096e-07
 104    4.719630822654e-08
 Sym= A
 Ene=               4
 Spin= Alpha
 Occup=    1.00000
   1     2.93973847795e-07
   2    2.366263593314e-07
   3    -4.8158107201727e-07
   4    1.2748914156931e-07
   5    -4.0156452372089e-08
   6    -3.9067120342588e-08
   7    7.9229155523469e-08
   8    8.3619931527264e-09
   9    8.1357899042483e-09
  10    -1.6497874854709e-08
  11    -2.9020789330612e-08
  12    -2.8233376781747e-08
  13    5.7258134788155e-08
  14     -0.20590328405559
  15      -0.1887509707241
  16      -0.1940132118581
  17    0.0016347660850503
  18      0.38274417083756
  19     0.049394974398217
  20     0.052351607239585
  21     0.053811231114368
  22    -0.00039214232154411
  23     -0.10615895153945
  24     0.049653900199865
  25     0.038954715457811
  26     0.040040793570234
  27    -0.0003941772166361
  28    -0.078991852919212
  29    -2.8136722503009e-08
  30    -2.1561868669216e-08
  31    -2.1443275133489e-08
  32    1.4952215988446e-10
  33    4.0676053136619e-13
  34    1.3374801965737e-09
  35    -9.4049459079173e-10
  36    -2.1150368848944e-09
  37    2.2288327320386e-07
  38    -3.0112316884658e-07
  39    1.2771493034495e-07
  40    -4.016391831609e-08
  41    -3.9074069678218e-08
  42    7.9242801727841e-08
  43    8.3670960463844e-09
  44    8.1406252652099e-09
  45    -1.6507800267795e-08
  46    -2.9025282367833e-08
  47    -2.8238228318557e-08
  48    5.726585568354e-08
  49      0.20591722884702
  50      0.18885127740419
  51      0.19411917267862
  52    -0.0016342192235623
  53     -0.38298943692917
  54    -0.049409173572599
  55    -0.052372244279031
  56     -0.05383293989354
  57    0.00039226581136884
  58      0.10620873556671
  59    -0.049660353973496
  60     -0.03897320841967
  61    -0.040060302094544
  62    0.00039413005782768
  63     0.079036994858888
  64    -2.8133954120682e-08
  65    -2.1566483502097e-08
  66    -2.1448046427182e-08
  67    1.4965945753369e-10
  68    1.0215740523479e-12
  69    1.331224771574e-09
  70    -9.3441038440223e-10
  71    -3.1474041171008e-07
  72    2.1851027727076e-07
  73    -1.9500062714429e-07
  74      0.10243096232265
  75     0.099653351170678
  76     -0.20208491473329
  77    0.0055422156211308
  78    0.0053920186412608
  79    -0.010934325550377
  80    0.0052876910506709
  81    0.0051442342432679
  82    -0.010431919953774
  83    1.1371922605464e-07
  84    -9.8702872641966e-07
  85    -1.0482755482184e-06
  86    1.0677280809185e-08
  87    2.4350634313512e-06
  88    -3.1474005943758e-07
  89    2.1850996135155e-07
  90    -1.9500034874801e-07
  91     -0.10243178088208
  92    -0.099654147516197
  93      0.20208652975597
  94    -0.0055422716693048
  95    -0.0053920731667693
  96     0.010934436128549
  97    -0.0052877203658591
  98    -0.0051442627645499
  99     0.010431977792395
 100    1.1372005497902e-07
 101    -9.8703041296413e-07
 102    -1.0482771732053e-06
 103    1.0677402096353e-08
 104    2.4350670577561e-06
 Sym= A
 Ene=               5
 Spin= Alpha
 Occup=    1.00000
   1      0.13152495877984
   2    0.0080484227238792
   3    -0.083055205748662
   4    -5.8794536212742e-05
   5    3.3143844630784e-07
   6    3.3143915404211e-07
   7    3.3145030867186e-07
   8    -1.4795200386817e-07
   9    -1.4795303418054e-07
  10    -1.4795391478214e-07
  11    2.069029726084e-07
  12    2.069033683942e-07
  13    2.0691030342089e-07
  14    -1.2672442811567e-08
  15     -0.28753805217686
  16     -0.28753697443464
  17    -8.1441717279892e-08
  18     -0.28753635818113
  19    7.1591936271968e-08
  20     0.070507267947098
  21     0.070507031686757
  22    4.6556257809134e-09
  23     0.070506943953176
  24    5.6867074844495e-09
  25     0.056941161905389
  26     0.056940947151056
  27    4.2374037719038e-08
  28     0.056940863903696
  29    -7.0711458024763e-08
  30    4.3297714829407e-08
  31    4.3297759110109e-08
  32    1.821050480793e-13
  33    2.673915118631e-08
  34    -5.5898400605542e-08
  35    5.5898773148932e-08
  36     -0.13152681241584
  37    -0.0080511136751137
  38      0.08305980178085
  39    5.7314413297559e-05
  40    3.3144264062573e-07
  41    3.3144360474905e-07
  42    3.3145532201117e-07
  43    -1.4795340857745e-07
  44    -1.4795471884314e-07
  45    -1.4795628014919e-07
  46    2.0690567938963e-07
  47    2.0690633177019e-07
  48    2.0691345723659e-07
  49    -1.6640197758662e-07
  50      0.28761064727713
  51      0.28761077430308
  52    3.7696606166216e-08
  53      0.28761274441543
  54    6.9347111214404e-08
  55    -0.070521287888089
  56    -0.070521285928825
  57    3.7493836562792e-08
  58    -0.070521701306609
  59    6.1125581196049e-08
  60     -0.05695449478552
  61    -0.056954499210421
  62    -2.3444994486011e-08
  63    -0.056954887013182
  64    -7.0709357056673e-08
  65    4.3296240687648e-08
  66    4.3296289890886e-08
  67    2.7240633438447e-13
  68    2.6736195955011e-08
  69    -5.5896466675599e-08
  70    5.5896972976231e-08
  71    1.7412731748612e-06
  72    -1.2348603970908e-06
  73    1.1073369058971e-06
  74     -0.19957592024693
  75     -0.19957518312792
  76     -0.19957522944498
  77    -0.019773102035246
  78    -0.019773028757408
  79     -0.01977304946477
  80    -0.0060595283319632
  81    -0.0060595145339283
  82    -0.0060595074495424
  83    -1.1084864307414e-09
  84    -7.3850731278058e-07
  85    -7.5060371781935e-07
  86    -1.9297949739577e-10
  87    -7.7648430123422e-07
  88    1.7412672273188e-06
  89    -1.2348564703183e-06
  90    1.1073337905601e-06
  91       0.1995814277135
  92      0.19958069059656
  93      0.19958073723357
  94     0.019773508717242
  95     0.019773435437542
  96     0.019773456174187
  97    0.0060597547166064
  98    0.0060597409196032
  99    0.0060597338419759
 100    -1.1081585531204e-09
 101    -7.3850837146626e-07
 102    -7.506046858982e-07
 103    -1.9315742668856e-10
 104    -7.7648551903344e-07
 Sym= A
 Ene=               6
 Spin= Alpha
 Occup=    1.00000
   1    9.5240639117521e-08
   2    1.8461510373938e-08
   3    -5.8464000654739e-08
   4    6.0029532547245e-09
   5    -6.5618156057033e-08
   6    5.0289022234649e-08
   7    1.5329950885752e-08
   8    5.6190599253426e-08
   9    -4.3064948502734e-08
  10    -1.3125424695776e-08
  11    -3.7600627424009e-08
  12    2.8815946175075e-08
  13    8.7844187497428e-09
  14     -0.13496727846062
  15    -0.057385508383667
  16     0.074880031955133
  17      0.58919019494952
  18    -0.017493666861603
  19     0.012635878530337
  20    -0.011891138089307
  21     0.015515539260602
  22    -0.055155778014251
  23    -0.0036242906175332
  24     0.024996882470189
  25    0.0029049871459753
  26    -0.0037908644765453
  27     -0.10912134096079
  28    0.00088577603935091
  29    -4.6545475050325e-09
  30    -9.7314223586873e-09
  31    3.6353298014321e-09
  32    1.0349701848522e-08
  33    -5.1805341985411e-14
  34    1.7660093889961e-08
  35    1.6495336528632e-08
  36    9.5727381091546e-08
  37    1.7587353328336e-08
  38    -6.0053998838532e-08
  39    5.8218828493706e-09
  40    6.558127294674e-08
  41    -5.026576196296e-08
  42    -1.5315938192125e-08
  43    -5.6177736844981e-08
  44    4.3056411153917e-08
  45    1.3120801887466e-08
  46    3.7571546991325e-08
  47    -2.8797628210291e-08
  48    -8.7736745172545e-09
  49     -0.13489350123942
  50    -0.057360566238447
  51     0.074840316354866
  52      0.58900601841965
  53     -0.01747893174714
  54     0.012623426009545
  55    -0.011890753498409
  56     0.015514882764197
  57    -0.055124847759275
  58    -0.003624012307609
  59     0.024982334917616
  60    0.0029021870534103
  61    -0.0037864275176674
  62     -0.10908496316515
  63    0.00088414712529854
  64    4.6481637627707e-09
  65    9.7211976095392e-09
  66    -3.6305997175309e-09
  67    -1.0347127481287e-08
  68    1.1425309937022e-13
  69    -1.7646166551377e-08
  70    -1.6485462952752e-08
  71    9.3308614561761e-08
  72    -4.0263193426718e-08
  73    3.3624466073546e-08
  74    -8.5217726667626e-05
  75    5.3106728354179e-05
  76    3.2120026670426e-05
  77    -1.1920798260319e-05
  78    7.4209139381642e-06
  79    4.5002533060931e-06
  80    -2.8123303840948e-06
  81    1.7601772983307e-06
  82    1.0526899136047e-06
  83    -0.004560745552064
  84    0.0040728602770595
  85    -0.0053142378742512
  86     0.019911943664494
  87    0.0012413372988722
  88    9.3307680111064e-08
  89    -4.0262718260317e-08
  90    3.3624502099233e-08
  91    8.5217428633728e-05
  92    -5.3106543911973e-05
  93    -3.2119909272955e-05
  94    1.1920750170432e-05
  95    -7.4208859811399e-06
  96    -4.5002339356547e-06
  97    2.8123189872121e-06
  98    -1.7601685170209e-06
  99    -1.0526861678408e-06
 100    -0.0045607540771621
 101    0.0040728628670902
 102    -0.0053142412530439
 103     0.019911980886937
 104    0.0012413380881323