[Molden Format]
made by pyscf v[2.8.0]
[Atoms] (AU)
Ni   1   18     1.97003948485908     1.97003948485908     1.97003948485908
Ni   2   18     9.85019742429539     9.85019742429539     9.85019742429539
O   3   6     5.91011845457723     5.91011845457723     5.91011845457723
O   4   6    13.79027639401354    13.79027639401354    13.79027639401354
[GTO]
1 0
 s    5 1.00
           10.07742776  -0.086835022047937
            5.84773585  -0.095903685028432
            2.49403283    0.46991871789322
            0.98835485    0.52127781030825
            0.34497824    0.19980772605381
 s    5 1.00
           10.07742776  -0.055380256268536
            5.84773585   -0.15598312898178
            2.49403283   -0.10540770191139
            0.98835485    -1.1775559082194
            0.34497824     0.6284312633313
 s    5 1.00
           10.07742776  0.0011915424366945
            5.84773585  -0.025720725603947
            2.49403283    0.20197864389862
            0.98835485   -0.32173365559475
            0.34497824     1.1611958853048
 s    5 1.00
           10.07742776    0.27184471914533
            5.84773585    0.73796544033067
            2.49403283   -0.73691551203506
            0.98835485    0.55803542001875
            0.34497824    0.41877878952057
 p    5 1.00
           10.07742776   -0.12750058189767
            5.84773585    0.23617194453988
            2.49403283     0.4467209080958
            0.98835485    0.37875039506176
            0.34497824    0.20276441303294
 p    5 1.00
           10.07742776  -0.070779520392839
            5.84773585    0.11875146132058
            2.49403283    0.60819117005229
            0.98835485    0.14684758597967
            0.34497824    0.37838351280256
 p    5 1.00
           10.07742776   0.028607180580373
            5.84773585  -0.0022917940244503
            2.49403283    0.40890008327435
            0.98835485    0.16908987530899
            0.34497824    -1.1320497337993
 d    5 1.00
           10.07742776   0.093294374780755
            5.84773585    0.26183261306695
            2.49403283    0.39361868576268
            0.98835485     0.2976443901192
            0.34497824    0.27230762480506
 d    5 1.00
           10.07742776   -0.11376814207537
            5.84773585   -0.31678030007156
            2.49403283   -0.48587555523743
            0.98835485   -0.33821048304157
            0.34497824    0.46566194756292
 d    5 1.00
           10.07742776   0.043173844695786
            5.84773585   0.046336965357534
            2.49403283    0.32318441251308
            0.98835485   -0.39625696010854
            0.34497824   -0.78697162717096
 f    5 1.00
           10.07742776  -0.015792251960243
            5.84773585   0.045386474223018
            2.49403283  0.0052050340574476
            0.98835485    0.42502844271748
            0.34497824    0.69348040818872

2 0
 s    5 1.00
           10.07742776  -0.086835022047937
            5.84773585  -0.095903685028432
            2.49403283    0.46991871789322
            0.98835485    0.52127781030825
            0.34497824    0.19980772605381
 s    5 1.00
           10.07742776  -0.055380256268536
            5.84773585   -0.15598312898178
            2.49403283   -0.10540770191139
            0.98835485    -1.1775559082194
            0.34497824     0.6284312633313
 s    5 1.00
           10.07742776  0.0011915424366945
            5.84773585  -0.025720725603947
            2.49403283    0.20197864389862
            0.98835485   -0.32173365559475
            0.34497824     1.1611958853048
 s    5 1.00
           10.07742776    0.27184471914533
            5.84773585    0.73796544033067
            2.49403283   -0.73691551203506
            0.98835485    0.55803542001875
            0.34497824    0.41877878952057
 p    5 1.00
           10.07742776   -0.12750058189767
            5.84773585    0.23617194453988
            2.49403283     0.4467209080958
            0.98835485    0.37875039506176
            0.34497824    0.20276441303294
 p    5 1.00
           10.07742776  -0.070779520392839
            5.84773585    0.11875146132058
            2.49403283    0.60819117005229
            0.98835485    0.14684758597967
            0.34497824    0.37838351280256
 p    5 1.00
           10.07742776   0.028607180580373
            5.84773585  -0.0022917940244503
            2.49403283    0.40890008327435
            0.98835485    0.16908987530899
            0.34497824    -1.1320497337993
 d    5 1.00
           10.07742776   0.093294374780755
            5.84773585    0.26183261306695
            2.49403283    0.39361868576268
            0.98835485     0.2976443901192
            0.34497824    0.27230762480506
 d    5 1.00
           10.07742776   -0.11376814207537
            5.84773585   -0.31678030007156
            2.49403283   -0.48587555523743
            0.98835485   -0.33821048304157
            0.34497824    0.46566194756292
 d    5 1.00
           10.07742776   0.043173844695786
            5.84773585   0.046336965357534
            2.49403283    0.32318441251308
            0.98835485   -0.39625696010854
            0.34497824   -0.78697162717096
 f    5 1.00
           10.07742776  -0.015792251960243
            5.84773585   0.045386474223018
            2.49403283  0.0052050340574476
            0.98835485    0.42502844271748
            0.34497824    0.69348040818872

3 0
 s    6 1.00
       12.015954705512  -0.061844226660387
        5.108150287385   -0.13315785563869
        2.048398039874      0.121422069274
        0.832381575582    0.47568168138593
        0.352316246455    0.46272457492216
         0.14297733088   0.095262649829276
 s    6 1.00
       12.015954705512    0.15859271745704
        5.108150287385    0.26750937454032
        2.048398039874   -0.12962804236994
        0.832381575582    -1.3815531883976
        0.352316246455    0.45055369158969
         0.14297733088    0.93411351629139
 s    6 1.00
       12.015954705512    0.17469268477106
        5.108150287385    0.34355445715351
        2.048398039874   -0.28815192910473
        0.832381575582    -1.8534746110137
        0.352316246455     3.0791654312782
         0.14297733088    -2.2211208621289
 p    6 1.00
       12.015954705512   0.037492720310186
        5.108150287385    0.12406828272606
        2.048398039874    0.25761486982013
        0.832381575582    0.36179838574496
        0.352316246455    0.30236257719025
         0.14297733088    0.17753391931446
 p    6 1.00
       12.015954705512  -0.033944352189603
        5.108150287385   -0.11968118310925
        2.048398039874   -0.21205643308682
        0.832381575582   -0.46998901622368
        0.352316246455    0.48107558887885
         0.14297733088    0.71188304760957
 p    6 1.00
       12.015954705512  -0.001862205574729
        5.108150287385   0.030958244103013
        2.048398039874  0.0040424961410035
        0.832381575582   -0.06872863368185
        0.352316246455      1.666962400196
         0.14297733088    -1.3705859943115
 d    6 1.00
       12.015954705512  0.0088155539821385
        5.108150287385   0.040595431873597
        2.048398039874    0.17299813625581
        0.832381575582    0.63307446916184
        0.352316246455    0.18316668591864
         0.14297733088    0.18953153192279

4 0
 s    6 1.00
       12.015954705512  -0.061844226660387
        5.108150287385   -0.13315785563869
        2.048398039874      0.121422069274
        0.832381575582    0.47568168138593
        0.352316246455    0.46272457492216
         0.14297733088   0.095262649829276
 s    6 1.00
       12.015954705512    0.15859271745704
        5.108150287385    0.26750937454032
        2.048398039874   -0.12962804236994
        0.832381575582    -1.3815531883976
        0.352316246455    0.45055369158969
         0.14297733088    0.93411351629139
 s    6 1.00
       12.015954705512    0.17469268477106
        5.108150287385    0.34355445715351
        2.048398039874   -0.28815192910473
        0.832381575582    -1.8534746110137
        0.352316246455     3.0791654312782
         0.14297733088    -2.2211208621289
 p    6 1.00
       12.015954705512   0.037492720310186
        5.108150287385    0.12406828272606
        2.048398039874    0.25761486982013
        0.832381575582    0.36179838574496
        0.352316246455    0.30236257719025
         0.14297733088    0.17753391931446
 p    6 1.00
       12.015954705512  -0.033944352189603
        5.108150287385   -0.11968118310925
        2.048398039874   -0.21205643308682
        0.832381575582   -0.46998901622368
        0.352316246455    0.48107558887885
         0.14297733088    0.71188304760957
 p    6 1.00
       12.015954705512  -0.001862205574729
        5.108150287385   0.030958244103013
        2.048398039874  0.0040424961410035
        0.832381575582   -0.06872863368185
        0.352316246455      1.666962400196
         0.14297733088    -1.3705859943115
 d    6 1.00
       12.015954705512  0.0088155539821385
        5.108150287385   0.040595431873597
        2.048398039874    0.17299813625581
        0.832381575582    0.63307446916184
        0.352316246455    0.18316668591864
         0.14297733088    0.18953153192279

[5d]
[7f]
[9g]
[core]
1 : 10
2 : 10
3 : 2
4 : 2

[MO]
 Sym= A
 Ene=               0
 Spin= Alpha
 Occup=    1.00000
   1       1.8841146951583
   2       0.8099237586117
   3     -0.82223718381628
   4      0.20395636406918
   5    1.4462408346545e-08
   6    1.4463583771656e-08
   7    1.4465987560409e-08
   8    -1.0163707250488e-10
   9    -1.012713336461e-10
  10    -1.0166673580939e-10
  11    9.5398782329499e-10
  12    9.5422744772308e-10
  13    9.5448506074321e-10
  14    -1.1094506854806e-10
  15    -0.0020852147814738
  16    -0.0020852378330391
  17    -8.8936826284177e-09
  18    -0.0020852023040311
  19    2.8953866042287e-09
  20    -0.00072732419998761
  21    -0.00072732817216219
  22    -3.2153298339444e-09
  23    -0.00072732183975173
  24    8.0394940273932e-10
  25    -0.0010183235449724
  26    -0.0010183336882208
  27    -4.4012305993952e-09
  28    -0.0010183183735352
  29    1.9830812147968e-10
  30    -1.2144064832043e-10
  31    -1.214447935834e-10
  32    -4.3471043546056e-15
  33    -1.4587030991448e-10
  34    1.5678316597454e-10
  35    -1.5679700353266e-10
  36        1.896490980069
  37      0.81524710142164
  38     -0.82765744927627
  39      0.20529928947154
  40    -1.4561601354238e-08
  41    -1.456307451328e-08
  42    -1.4565699412113e-08
  43    1.084866413528e-10
  44    1.0806906543132e-10
  45    1.0833586222951e-10
  46    -9.6261038627478e-10
  47    -9.6301417381503e-10
  48    -9.633783403289e-10
  49    1.862015297583e-08
  50    -0.0020626892550963
  51    -0.002062714224537
  52    -2.9831744996997e-09
  53    -0.0020626823462496
  54    2.7324476422531e-09
  55    -0.00069809814772414
  56    -0.00069810278453654
  57    -3.3613275077583e-09
  58    -0.00069809774756533
  59    7.9395033631922e-09
  60    -0.0010103760710218
  61    -0.0010103869590906
  62    -2.1748274203406e-09
  63    -0.0010103730375071
  64    -1.9949255095103e-10
  65    1.2218699625328e-10
  66    1.2217420656074e-10
  67    2.7891307253482e-15
  68    1.4641758771126e-10
  69    -1.5773945630642e-10
  70    1.5772642831548e-10
  71     0.002014016995288
  72    0.0015870308075512
  73    -0.00068796170637889
  74    -5.8748624803559e-06
  75    -5.8742724524027e-06
  76    -5.8760702117781e-06
  77    -5.6574613000786e-06
  78    -5.6569428680978e-06
  79    -5.6585094930483e-06
  80    2.498906653076e-06
  81    2.4984448464535e-06
  82    2.4998500211524e-06
  83    4.2175801034509e-11
  84    -9.3811627467007e-05
  85    -9.381132993931e-05
  86    -2.8856985843699e-11
  87    -9.3811743395339e-05
  88     0.002014016997859
  89    0.0015870288315551
  90    -0.00068796051385277
  91    5.8748670764068e-06
  92    5.8742774951103e-06
  93    5.8760754635645e-06
  94    5.6574643269271e-06
  95    5.6569463304224e-06
  96    5.6585131441176e-06
  97    -2.498910290447e-06
  98    -2.4984488074005e-06
  99    -2.4998541501828e-06
 100    4.2124843623495e-11
 101    -9.381173036793e-05
 102    -9.3811432850871e-05
 103    -2.8863160726555e-11
 104    -9.3811846295675e-05
 Sym= A
 Ene=               1
 Spin= Alpha
 Occup=    1.00000
   1       1.8986241710174
   2      0.81663351329307
   3     -0.83149234203944
   4      0.20600730764879
   5    1.5274212520066e-08
   6    1.5275420461681e-08
   7    1.5277779840713e-08
   8    -1.0533130251909e-09
   9    -1.0530013343258e-09
  10    -1.0532827239575e-09
  11    1.3395882070177e-09
  12    1.3398753541715e-09
  13    1.3400366006905e-09
  14    5.6391961270771e-10
  15    0.0034363060053688
  16    0.0034362822579364
  17    -1.0222406922581e-08
  18    0.0034363177587351
  19    3.1022933490873e-09
  20    0.0044655197646981
  21    0.0044655153542701
  22    -4.1253388439828e-09
  23    0.0044655213379188
  24    8.9010310945966e-10
  25    0.0012113657230061
  26    0.0012113554069845
  27    -4.7127467928549e-09
  28    0.0012113706613419
  29    1.852801054025e-10
  30    -1.1344836171616e-10
  31    -1.1343482246149e-10
  32    -6.5622000995039e-15
  33    -8.4160581495324e-11
  34    1.4646309244317e-10
  35    -1.4645870796954e-10
  36      -1.8862622709016
  37     -0.81131955882179
  38      0.82609755630668
  39     -0.20466915989621
  40    1.517908349251e-08
  41    1.5180488379225e-08
  42    1.5183064353435e-08
  43    -1.0528097102455e-09
  44    -1.0523136120592e-09
  45    -1.0524666655815e-09
  46    1.3332947811179e-09
  47    1.3336590144677e-09
  48    1.333887926812e-09
  49    -2.0127821247023e-08
  50    -0.0034498704134077
  51    -0.0034498457147468
  52    3.899267460433e-09
  53    -0.0034498784502599
  54    -4.0295635541732e-09
  55    -0.0044701813166812
  56    -0.0044701769249464
  57    3.8264930334223e-09
  58    -0.0044701828087424
  59    -8.3056126964709e-09
  60    -0.0012180003070826
  61    -0.0012179895983765
  62    2.3192040405205e-09
  63    -0.0012180036992809
  64    1.8400457776432e-10
  65    -1.1265989553056e-10
  66    -1.1265521179299e-10
  67    -4.510349753962e-15
  68    -8.3197125890482e-11
  69    1.4543835737759e-10
  70    -1.4543923655993e-10
  71    6.584928047932e-06
  72    5.1876092424032e-06
  73    -2.248707172158e-06
  74    0.0017964257922276
  75    0.0017964251362848
  76    0.0017964247742038
  77    0.0017298128988714
  78    0.0017298122729757
  79    0.0017298118206131
  80    -0.00076410916852099
  81    -0.00076410906401025
  82    -0.0007641086788017
  83    -8.2502593613965e-11
  84    -3.0666538346787e-07
  85    -3.0672109765758e-07
  86    -2.8256656551762e-11
  87    -3.0684739243062e-07
  88    6.5849280764644e-06
  89    5.1876026962414e-06
  90    -2.2487031461242e-06
  91    -0.0017964272928374
  92    -0.0017964266369534
  93    -0.0017964262734936
  94    -0.0017298139083828
  95    -0.0017298132825218
  96    -0.0017298128288348
  97    0.00076411035402583
  98    0.00076411024954875
  99    0.00076410986335816
 100    -8.2499731016773e-11
 101    -3.0666572398753e-07
 102    -3.0672143924371e-07
 103    -2.8258896574811e-11
 104    -3.0684773449057e-07
 Sym= A
 Ene=               2
 Spin= Alpha
 Occup=    1.00000
   1    9.8391143717231e-12
   2    6.2852288540467e-12
   3    -6.0606225156874e-12
   4    2.4488250539917e-12
   5     0.083897628556686
   6      0.34128660599562
   7     -0.42517950741067
   8     0.026043850924623
   9      0.10594350430231
  10     -0.13198595893195
  11     0.017763960240938
  12     0.072262009521085
  13    -0.090024882928336
  14    -2.8931141290378e-09
  15    -1.9725211834336e-09
  16    -4.8507203747944e-10
  17    -1.0110631740168e-09
  18    2.4574168773209e-09
  19    5.3819372865608e-09
  20    2.6853181474408e-09
  21    6.596972561632e-10
  22    1.8807929690706e-09
  23    -3.3457502441495e-09
  24    4.6626265564162e-09
  25    1.7613059391736e-09
  26    4.3261794491549e-10
  27    1.6296048631854e-09
  28    -2.1945016684592e-09
  29    0.0017751281833145
  30    0.00037040804535854
  31    0.00097613375455744
  32    6.6223007435267e-05
  33    -5.1647209234415e-09
  34    -0.00015615035683799
  35    0.0010462840274063
  36    1.0310598596011e-11
  37    6.1011049785534e-12
  38    -6.0349009102941e-12
  39    2.2623284802172e-12
  40    -0.083921680230394
  41     -0.34137827064085
  42      0.42530323843094
  43    -0.026050720110097
  44     -0.10596965097864
  45      0.13202125135669
  46    -0.017769745518322
  47     -0.07228402365027
  48     0.090054569360109
  49    -2.8944517352892e-09
  50    -1.9728800677876e-09
  51    -4.8515450667246e-10
  52    -1.0114975039207e-09
  53    2.4578464447622e-09
  54    5.3829770403164e-09
  55    2.6860485246082e-09
  56    6.5990491515214e-10
  57    1.8811372715355e-09
  58    -3.346630957852e-09
  59    4.6639645180583e-09
  60    1.7618270784341e-09
  61    4.3277031867386e-10
  62    1.6300202965906e-09
  63    -2.1951577752662e-09
  64    -0.0017770037309783
  65    -0.00037048365521406
  66    -0.00097688963037015
  67    -6.6160225269714e-05
  68    4.2138195105142e-09
  69    0.00015655836155738
  70    -0.0010474674958572
  71    -4.9265574561807e-09
  72    1.1248161268437e-08
  73    -1.0775721485991e-08
  74    2.1090455612149e-06
  75    7.9993042969698e-06
  76    -1.07505501862e-05
  77    1.8736395791375e-06
  78    7.1095250899843e-06
  79    -9.554316805432e-06
  80    -1.5094802640953e-06
  81    -5.7386799290694e-06
  82    7.7235934483811e-06
  83    0.00070862344568775
  84    0.00025841954724879
  85    6.3525862822136e-05
  86    0.00024766619860605
  87    -0.0003219478580784
  88    4.9269254967784e-09
  89    -1.1247981709479e-08
  90    1.0775754273591e-08
  91    2.1090455566417e-06
  92    7.9993043419465e-06
  93    -1.0750550227602e-05
  94    1.8736394681901e-06
  95    7.1095247371712e-06
  96    -9.5543163137434e-06
  97    -1.5094802011213e-06
  98    -5.738679714486e-06
  99    7.7235931362396e-06
 100    -0.00070862435284845
 101    -0.00025841953232878
 102    -6.3525859106234e-05
 103    -0.00024766651570578
 104    0.00032194783954428
 Sym= A
 Ene=               3
 Spin= Alpha
 Occup=    1.00000
   1    -7.0488963797604e-12
   2    -4.0147988137964e-12
   3    3.9527512908791e-12
   4    -1.4348797537552e-12
   5     -0.44252178278761
   6       0.2939177233434
   7      0.14860055314201
   8     -0.13736934892044
   9     0.091239013536492
  10     0.046129141581007
  11    -0.093696897228267
  12     0.062232409974437
  13      0.03146377180429
  14    1.0110152215742e-09
  15    -1.6988042938362e-09
  16    2.5577716663802e-09
  17    -2.892503260713e-09
  18    -8.5911828643338e-10
  19    -1.8809111226403e-09
  20    2.3137812446134e-09
  21    -3.4828243671813e-09
  22    5.3810202328989e-09
  23    1.1695993482479e-09
  24    -1.6296035781012e-09
  25    1.5176028845745e-09
  26    -2.2843620584926e-09
  27    4.6626291155258e-09
  28    7.6707622627906e-10
  29    -0.0006204080578806
  30    -0.0011018375190164
  31    0.00063122287667907
  32    0.0001894775429138
  33    7.7998332241835e-09
  34    0.0014835269509873
  35    0.0010632772750666
  36    -7.3926152087955e-12
  37    -3.9005554179346e-12
  38    3.8950656869597e-12
  39    -1.3048603898976e-12
  40      0.44264373438017
  41     -0.29399700179843
  42     -0.14864341350687
  43      0.13740413043517
  44    -0.091261623010391
  45    -0.046141367945193
  46     0.093726168442251
  47    -0.062251436985766
  48     -0.03147405995765
  49    1.0116201962795e-09
  50    -1.6995169580361e-09
  51    2.558675850623e-09
  52    -2.894082058505e-09
  53    -8.5939599294754e-10
  54    -1.8812205094841e-09
  55    2.3144001745814e-09
  56    -3.4837738107802e-09
  57    5.3819571770789e-09
  58    1.170003834032e-09
  59    -1.6299611775727e-09
  60    1.5179636242514e-09
  61    -2.2848957515015e-09
  62    4.6635277491349e-09
  63    7.6731272524528e-10
  64    0.00062105944456442
  65    0.0011030064144064
  66    -0.0006320809089392
  67    -0.00018930018986975
  68    -7.8102990415656e-09
  69    -0.0014849672594482
  70    -0.0010641369945699
  71    1.0625881230028e-08
  72    -4.2693000212892e-08
  73    2.9628034899054e-08
  74    -1.0617392160753e-05
  75    6.9005443037771e-06
  76    3.7310514012785e-06
  77    -9.4377292513317e-06
  78    6.1361072933257e-06
  79    3.3141383039304e-06
  80    7.6241228906641e-06
  81    -4.9572503434367e-06
  82    -2.6775186074608e-06
  83    -0.00024766501170298
  84    0.00022255533384182
  85    -0.0003350740292962
  86    0.00070861995368866
  87    0.00011252283560503
  88    -1.0626017442128e-08
  89    4.2692916393533e-08
  90    -2.9628038738251e-08
  91    -1.0617392391938e-05
  92    6.9005445378452e-06
  93    3.7310513896953e-06
  94    -9.4377289548611e-06
  95    6.1361071761968e-06
  96    3.3141381055749e-06
  97    7.6241227189423e-06
  98    -4.9572502812623e-06
  99    -2.6775184623331e-06
 100    0.00024766532874171
 101    -0.00022255532106649
 102    0.00033507400997783
 103    -0.00070862086093089
 104    -0.00011252282913243
 Sym= A
 Ene=               4
 Spin= Alpha
 Occup=    1.00000
   1    -7.6106838731095e-12
   2    -5.2866805334499e-12
   3    4.8445067659016e-12
   4    -2.1408831196887e-12
   5    -0.076014467578987
   6     -0.34882398232728
   7       0.4248101079034
   8    -0.021651536001185
   9    -0.099355366001031
  10      0.12099751491494
  11    -0.018229729477517
  12    -0.083656077359404
  13       0.1018800324001
  14    5.3602603641791e-09
  15    2.0831009317103e-09
  16    4.5394835159588e-10
  17    1.9873589473928e-09
  18    -2.537573892548e-09
  19    -3.4454173888462e-09
  20    -2.5876131113879e-09
  21    -5.6335217366356e-10
  22    -1.2770845902792e-09
  23    3.1516254717392e-09
  24    -3.9599367391541e-09
  25    -1.6864615509595e-09
  26    -3.6707135708509e-10
  27    -1.4681514923253e-09
  28    2.0541673445822e-09
  29    -0.0064486144299232
  30    -0.00016003741430685
  31    -0.0028887075211465
  32    0.00024376615937343
  33    1.7431363130501e-11
  34     0.001335437437822
  35    -0.0044600705583604
  36    1.3590211891112e-11
  37    8.0176407518917e-12
  38    -8.1665139927751e-12
  39    2.9916412311783e-12
  40    -0.075972378393171
  41     -0.34870921989179
  42      0.42470960725077
  43    -0.021638075536655
  44    -0.099319369350016
  45      0.12096678748506
  46    -0.018220982144861
  47      -0.0836319533679
  48      0.10185861938897
  49    -5.3591730387774e-09
  50    -2.0825544853272e-09
  51    -4.5391947018225e-10
  52    -1.987045885271e-09
  53    2.5364545783274e-09
  54    3.4440045294011e-09
  55    2.5871033571253e-09
  56    5.6340972686644e-10
  57    1.2765457651661e-09
  58    -3.1503956677472e-09
  59    3.9588311916343e-09
  60    1.6861838904103e-09
  61    3.6713627585841e-10
  62    1.4677132528255e-09
  63    -2.0534576816317e-09
  64    -0.0064481775085019
  65    -0.00015989944758726
  66    -0.0028884007167183
  67    0.00024378701098233
  68    6.766954716363e-09
  69    0.0013353469284144
  70    -0.004459727257538
  71    5.1933439581128e-08
  72    -3.0166141043307e-07
  73    1.7482858603297e-07
  74     0.013227249071387
  75     0.060705533172429
  76     -0.07393271409519
  77     0.011756137396652
  78     0.053953965618687
  79    -0.065710036441413
  80    -0.009498899840116
  81    -0.043594537442032
  82      0.05309339329618
  83    -9.903730205527e-08
  84    -2.9500959213137e-08
  85    -2.7447296641439e-09
  86    -3.4758125036283e-08
  87    5.2215492817101e-08
  88    -5.1933653568083e-08
  89    3.0166146896549e-07
  90    -1.7482864838317e-07
  91     0.013227249254149
  92     0.060705534009304
  93    -0.073932715113892
  94     0.011756136915517
  95     0.053953963408588
  96    -0.065710033749711
  97    -0.0094988995506945
  98    -0.043594536112577
  99     0.053093391677501
 100    9.903742179637e-08
 101    2.9500960970465e-08
 102    2.7447317858881e-09
 103    3.4758169493486e-08
 104    -5.2215485762472e-08
 Sym= A
 Ene=               5
 Spin= Alpha
 Occup=    1.00000
   1    7.3596616243248e-12
   2    4.248803314883e-12
   3    -4.214563625741e-12
   4    1.5367258205437e-12
   5      0.44665809191373
   6     -0.28914682098825
   7     -0.15750722221475
   8      0.12722084026486
   9    -0.082357140085116
  10    -0.044862524792803
  11      0.10711938320448
  12     -0.06934444512713
  13    -0.037774011714824
  14    -1.9872444061542e-09
  15    1.7270515320378e-09
  16    -2.6677302500238e-09
  17    5.3597831773515e-09
  18    9.4107660333928e-10
  19    1.2773133637924e-09
  20    -2.1460879609526e-09
  21    3.3144616526023e-09
  22    -3.4440971281898e-09
  23    -1.1687227990398e-09
  24    1.4681938990286e-09
  25    -1.3987264508377e-09
  26    2.1601682103106e-09
  27    -3.9597557346028e-09
  28    -7.6168291732112e-10
  29    0.0023909095736418
  30    0.0042449726976224
  31    -0.0031146024069903
  32    0.00065747452782816
  33    -6.2331399856645e-09
  34    -0.0052881567259702
  35    -0.0031393800266218
  36    -7.7072850765025e-12
  37    -4.0731769200359e-12
  38    4.1125299228849e-12
  39    -1.3682336940125e-12
  40      0.44653531528877
  41     -0.28907129968592
  42     -0.15746214741088
  43      0.12718276174323
  44    -0.082333738429345
  45    -0.044848572614896
  46      0.10709341506116
  47    -0.069328460832716
  48    -0.037764471486263
  49    1.9869788058813e-09
  50    -1.7267619052696e-09
  51    2.6671836681582e-09
  52    -5.3593337818924e-09
  53    -9.4085448448848e-10
  54    -1.2767175867819e-09
  55    2.1455837172828e-09
  56    -3.3135696152176e-09
  57    3.4424852180061e-09
  58    1.1684086250366e-09
  59    -1.4676561284687e-09
  60    1.398327866835e-09
  61    -2.1594901089306e-09
  62    3.9582557204042e-09
  63    7.6146046032162e-10
  64    0.0023907208569934
  65    0.0042446729796721
  66    -0.003114447583668
  67    0.0006575219674645
  68    -6.5067327340263e-09
  69    -0.0052877432227904
  70    -0.0031391013030203
  71    -1.9312660062026e-09
  72    1.1637500900739e-08
  73    -6.6760540952496e-09
  74    -0.077733559426738
  75     0.050321629662896
  76     0.027411413176861
  77    -0.069088163253353
  78     0.044724938597284
  79     0.024362758203891
  80       0.0558229093871
  81    -0.036137539832088
  82    -0.019684992168655
  83    3.7979950840014e-08
  84    -2.8755440905272e-08
  85    4.5726966504871e-08
  86    -9.5039460873302e-08
  87    -1.7715752821187e-08
  88    1.9313166487883e-09
  89    -1.1637511118991e-08
  90    6.6760699245311e-09
  91    -0.077733560497605
  92     0.050321630355784
  93     0.027411413554465
  94    -0.069088160422764
  95     0.044724936764467
  96     0.024362757205847
  97     0.055822907684498
  98    -0.036137538729659
  99    -0.019684991568517
 100    -3.798000052074e-08
 101    2.875544319275e-08
 102    -4.5726969995851e-08
 103    9.5039587666905e-08
 104    1.7715753275857e-08
 Sym= A
 Ene=               6
 Spin= Alpha
 Occup=    1.00000
   1    1.0386487746325e-07
   2    5.3964642129797e-08
   3    -6.2621398769187e-08
   4    1.8937659465669e-08
   5     -0.31418371556233
   6     -0.31417889580013
   7     -0.31420194385426
   8     -0.10432454661157
   9     -0.10432323591284
  10     -0.10432978815043
  11    -0.063840376810512
  12    -0.063839147292812
  13    -0.063844669991653
  14    -7.6900145344681e-13
  15    -3.1653042490508e-09
  16    -3.1654963540893e-09
  17    2.0242060648444e-13
  18    -3.1652306001743e-09
  19    7.966438040466e-13
  20    4.9162174538978e-09
  21    4.9163687365079e-09
  22    -1.5379067301352e-13
  23    4.9156295679517e-09
  24    1.2709479073154e-13
  25    3.2062165279104e-09
  26    3.2062682172739e-09
  27    1.7192081240226e-14
  28    3.2057885205169e-09
  29    0.00098019331356595
  30    -0.00060010675358297
  31    -0.00060003746893394
  32    -4.2476996846244e-09
  33    -0.00013464954391701
  34    0.00077470506527837
  35    -0.00077462558248619
  36    1.0391381460967e-07
  37    5.398958757201e-08
  38    -6.2650603808294e-08
  39    1.8946282583193e-08
  40      0.31434756162576
  41      0.31435735418859
  42      0.31433444730532
  43       0.1043708233091
  44      0.10437366716252
  45      0.10436715174455
  46     0.063878851357382
  47     0.063881125196037
  48     0.063875630612734
  49    -4.2444772134313e-13
  50    -3.1660301223356e-09
  51    -3.1665520401288e-09
  52    2.726447691093e-13
  53    -3.1660789143995e-09
  54    6.8506171653487e-13
  55    4.9191478675117e-09
  56    4.9194476045263e-09
  57    -3.0715065840423e-13
  58    4.9187952013252e-09
  59    2.4622385981668e-14
  60    3.2079948087498e-09
  61    3.2080161640596e-09
  62    -1.4903853049365e-13
  63    3.2078568406838e-09
  64    -0.00098188678502045
  65    0.00060140937440493
  66    0.00060148545198111
  67    -6.4123232448405e-09
  68    0.00013464694073261
  69    -0.00077644226346021
  70    0.00077653251142756
  71    0.0017053344689319
  72    -0.010084914934983
  73    0.0058289039077433
  74    -1.3208795007794e-05
  75    -1.4483831957891e-05
  76    -1.0475939425325e-05
  77    -1.174733915067e-05
  78    -1.2880920341646e-05
  79    -9.3177224985594e-06
  80    9.7857933709664e-06
  81    1.0701253309383e-05
  82    7.8231759750089e-06
  83    9.4908854610668e-10
  84    0.00022271387277866
  85    0.00022271579944842
  86    -1.1000045219748e-09
  87    0.00022271345228627
  88    -0.0017053405277092
  89     0.010084916653014
  90    -0.0058289055306087
  91    -1.3208795196326e-05
  92    -1.4483832131571e-05
  93    -1.0475939402331e-05
  94    -1.174733892924e-05
  95    -1.2880920013288e-05
  96    -9.3177221542912e-06
  97    9.7857933250527e-06
  98    1.0701253167572e-05
  99    7.8231757691114e-06
 100    -9.4906727529567e-10