[Molden Format]
made by pyscf v[2.8.0]
[Atoms] (AU)
Ni   1   18     1.97003948485908     1.97003948485908     1.97003948485908
Ni   2   18     9.85019742429539     9.85019742429539     9.85019742429539
O   3   6     5.91011845457723     5.91011845457723     5.91011845457723
O   4   6    13.79027639401354    13.79027639401354    13.79027639401354
[GTO]
1 0
 s    5 1.00
       10.077427756816   -0.16816538591041
        5.847735848326   -0.31203986825241
        2.494032826008    0.76231213094128
        0.988354848429    0.55437604679043
        0.344978242158    0.03155701098717
 s    5 1.00
       10.077427756816   0.058000950062097
        5.847735848326    0.14653254811322
        2.494032826008   -0.50777581008225
        0.988354848429    -1.0938070247199
        0.344978242158    0.66529670756055
 s    5 1.00
       10.077427756816  0.0053460448296085
        5.847735848326   -0.08418457883001
        2.494032826008  0.0015718453997724
        0.988354848429   -0.87757432617674
        0.344978242158     1.5777647329419
 p    5 1.00
       10.077427756816   -0.12236774170237
        5.847735848326    0.23342048133724
        2.494032826008    0.52638460167342
        0.988354848429    0.39425731817561
        0.344978242158   0.051608556148131
 p    5 1.00
       10.077427756816  -0.012616972687739
        5.847735848326  -0.025194607896872
        2.494032826008   -0.22268415555677
        0.988354848429   -0.22497484726751
        0.344978242158     1.1712751328261
 d    5 1.00
       10.077427756816    0.08918252306285
        5.847735848326    0.25567343360121
        2.494032826008     0.3554995300545
        0.988354848429    0.34934981895974
        0.344978242158    0.26737625455372
 d    5 1.00
       10.077427756816  -0.093993451492197
        5.847735848326   -0.36074197756838
        2.494032826008    -0.5570889903816
        0.988354848429   -0.15334190860524
        0.344978242158    0.42481173879085
 f    5 1.00
       10.077427756816  -0.0083683152125103
        5.847735848326    0.03763133075813
        2.494032826008   0.027363949027932
        0.988354848429    0.87387054931809
        0.344978242158    0.16755768848104

2 0
 s    5 1.00
       10.077427756816   -0.16816538591041
        5.847735848326   -0.31203986825241
        2.494032826008    0.76231213094128
        0.988354848429    0.55437604679043
        0.344978242158    0.03155701098717
 s    5 1.00
       10.077427756816   0.058000950062097
        5.847735848326    0.14653254811322
        2.494032826008   -0.50777581008225
        0.988354848429    -1.0938070247199
        0.344978242158    0.66529670756055
 s    5 1.00
       10.077427756816  0.0053460448296085
        5.847735848326   -0.08418457883001
        2.494032826008  0.0015718453997724
        0.988354848429   -0.87757432617674
        0.344978242158     1.5777647329419
 p    5 1.00
       10.077427756816   -0.12236774170237
        5.847735848326    0.23342048133724
        2.494032826008    0.52638460167342
        0.988354848429    0.39425731817561
        0.344978242158   0.051608556148131
 p    5 1.00
       10.077427756816  -0.012616972687739
        5.847735848326  -0.025194607896872
        2.494032826008   -0.22268415555677
        0.988354848429   -0.22497484726751
        0.344978242158     1.1712751328261
 d    5 1.00
       10.077427756816    0.08918252306285
        5.847735848326    0.25567343360121
        2.494032826008     0.3554995300545
        0.988354848429    0.34934981895974
        0.344978242158    0.26737625455372
 d    5 1.00
       10.077427756816  -0.093993451492197
        5.847735848326   -0.36074197756838
        2.494032826008    -0.5570889903816
        0.988354848429   -0.15334190860524
        0.344978242158    0.42481173879085
 f    5 1.00
       10.077427756816  -0.0083683152125103
        5.847735848326    0.03763133075813
        2.494032826008   0.027363949027932
        0.988354848429    0.87387054931809
        0.344978242158    0.16755768848104

3 0
 s    5 1.00
       10.389228018317   0.096173629276308
        3.849621072005    0.10660531634684
        1.388401188741   -0.33089834130169
        0.496955043655    -0.6496800688702
         0.16249161504   -0.18463001807573
 s    5 1.00
       10.389228018317   0.073630541584408
        3.849621072005    0.12300997725073
        1.388401188741   -0.34343118342323
        0.496955043655   -0.10206354789477
         0.16249161504     1.1731714191581
 p    5 1.00
       10.389228018317  -0.057562550918086
        3.849621072005    -0.1784919811951
        1.388401188741   -0.35468525474322
        0.496955043655   -0.42655539522159
         0.16249161504    -0.2416879946641
 p    5 1.00
       10.389228018317  -0.021265755186923
        3.849621072005  -0.0049739296849897
        1.388401188741    -0.1779930881255
        0.496955043655    0.30108256988861
         0.16249161504    0.83447656856867
 d    5 1.00
       10.389228018317   0.018871300922529
        3.849621072005   0.038532527740515
        1.388401188741    0.46305094876991
        0.496955043655    0.56500599531169
         0.16249161504   0.096713771818926

4 0
 s    5 1.00
       10.389228018317   0.096173629276308
        3.849621072005    0.10660531634684
        1.388401188741   -0.33089834130169
        0.496955043655    -0.6496800688702
         0.16249161504   -0.18463001807573
 s    5 1.00
       10.389228018317   0.073630541584408
        3.849621072005    0.12300997725073
        1.388401188741   -0.34343118342323
        0.496955043655   -0.10206354789477
         0.16249161504     1.1731714191581
 p    5 1.00
       10.389228018317  -0.057562550918086
        3.849621072005    -0.1784919811951
        1.388401188741   -0.35468525474322
        0.496955043655   -0.42655539522159
         0.16249161504    -0.2416879946641
 p    5 1.00
       10.389228018317  -0.021265755186923
        3.849621072005  -0.0049739296849897
        1.388401188741    -0.1779930881255
        0.496955043655    0.30108256988861
         0.16249161504    0.83447656856867
 d    5 1.00
       10.389228018317   0.018871300922529
        3.849621072005   0.038532527740515
        1.388401188741    0.46305094876991
        0.496955043655    0.56500599531169
         0.16249161504   0.096713771818926

[5d]
[7f]
[9g]
[core]
1 : 10
2 : 10
3 : 2
4 : 2

[MO]
 Sym= A
 Ene=               0
 Spin= Alpha
 Occup=    1.00000
   1    4.9913117839631e-07
   2    -4.2981450551514e-07
   3    -1.669970053629e-07
   4    -5.2138501669622e-10
   5    -5.0756356503462e-10
   6    1.0345674822999e-09
   7    8.8887932514019e-10
   8    8.6525275861198e-10
   9    -1.7546025254138e-09
  10    -0.081673483558205
  11     -0.27841605622196
  12     -0.28596754012746
  13    0.00063686186438058
  14       0.5643724651102
  15      0.00616410349408
  16    0.00065502891874913
  17    0.00067326564854444
  18    -4.716495387618e-05
  19    -0.0013281434325979
  20    3.1353034119122e-10
  21    -5.9325475605479e-10
  22    -6.0199148687304e-10
  23    7.7466523276227e-12
  24    1.3239660360566e-12
  25    -6.5979137495804e-10
  26    6.6154564012066e-10
  27    -5.0770958788661e-07
  28    4.3956891438344e-07
  29    1.4951805604682e-07
  30    5.2435958243751e-10
  31    5.1084902997757e-10
  32    -1.0377248034937e-09
  33    -8.9614771313935e-10
  34    -8.7250776823533e-10
  35    1.7680065272275e-09
  36     -0.08200580369036
  37     -0.27872481535311
  38     -0.28624585635084
  39    0.00062460607995272
  40      0.56498199739303
  41    0.0061532841098695
  42    0.00066204244274622
  43    0.00067943502788211
  44    -4.7766423943721e-05
  45    -0.0013416239952306
  46    -3.1027131339041e-10
  47    5.9506556746367e-10
  48    6.0379843562958e-10
  49    -7.8061957007479e-12
  50    -5.4543791496532e-13
  51    6.5950648197104e-10
  52    -6.6086439641294e-10
  53    4.9297496815628e-12
  54    -5.7348178843946e-12
  55    5.9032607578381e-05
  56    6.9899796339535e-05
  57    -0.0001224370639588
  58    -7.426181144011e-06
  59    -8.9273588706691e-06
  60    1.5346016803582e-05
  61    -9.3167719662975e-05
  62    0.0040214768871654
  63    0.0041302718730555
  64    7.1781371088101e-07
  65    -0.0081517493412416
  66    8.9709073718415e-12
  67    -5.3559284224251e-12
  68    -5.9032635794426e-05
  69    -6.9899831959485e-05
  70    0.00012243711837499
  71    7.4261630134366e-06
  72    8.9273428602066e-06
  73    -1.5345981789209e-05
  74    -9.3168026682267e-05
  75    0.0040214778072576
  76    0.0041302728179982
  77    7.1781609654106e-07
  78    -0.0081517512046687
 Sym= A
 Ene=               1
 Spin= Alpha
 Occup=    1.00000
   1    -5.6993735148134e-07
   2    4.9209911794948e-07
   3    1.7881520514135e-07
   4    8.9477404184174e-10
   5    -9.028656606935e-10
   6    7.9189672798158e-12
   7    -1.5105941193685e-09
   8    1.5242362440298e-09
   9    -1.323449459123e-11
  10    -0.00062209849300495
  11     -0.49094530939377
  12      0.48661600709992
  13    -0.081684932576765
  14    0.0043420495967452
  15    4.7828845366815e-05
  16    0.0011555760040805
  17    -0.001145744595313
  18    0.0061634713380046
  19    -1.0000850307001e-05
  20    2.6306149421974e-12
  21    -5.7251290443212e-10
  22    5.6332194135132e-10
  23    -1.0123217803972e-09
  24    1.4158603641408e-13
  25    -1.0008658300404e-10
  26    -8.993644925014e-11
  27    5.6941582167553e-07
  28    -4.9158531366033e-07
  29    -1.7979333432383e-07
  30    -8.9643988095601e-10
  31    9.0417128795402e-10
  32    -8.4317853582192e-12
  33    1.5218450359194e-09
  34    -1.5351821277419e-09
  35    1.3710027392888e-11
  36    -0.00063910034200613
  37      -0.4914555647686
  38      0.48708279442926
  39    -0.081992269421117
  40    0.0043600950099394
  41    4.7080350728814e-05
  42    0.0011667500508528
  43    -0.0011560125251386
  44    0.0061537885538184
  45    -1.0570655487319e-05
  46    -2.2699010489884e-12
  47    5.7043987435747e-10
  48    -5.6117078181752e-10
  49    1.0139867455317e-09
  50    2.1394510932793e-14
  51    1.0301052594395e-10
  52    9.278783493812e-11
  53    -5.7679029850271e-11
  54    -1.4323694312109e-10
  55    -9.5755609822217e-05
  56    9.8919321271562e-05
  57    -1.0514861117783e-05
  58    1.1972008386251e-05
  59    -1.2304170506085e-05
  60    1.4723068379821e-06
  61    -7.1790307367638e-07
  62    0.0070910323012177
  63    -0.0070282199574156
  64    -9.31642793295e-05
  65    -6.2812632683762e-05
  66    -5.7364945129361e-11
  67    -1.4319607411186e-10
  68    9.5755661221753e-05
  69    -9.8919367026585e-05
  70    1.0514871652188e-05
  71    -1.1971980178323e-05
  72    1.2304140911929e-05
  73    -1.4723085674215e-06
  74    -7.1790541349722e-07
  75     0.007091033923196
  76    -0.0070282215649389
  77    -9.31645855878e-05
  78    -6.28126470298e-05
 Sym= A
 Ene=               2
 Spin= Alpha
 Occup=    1.00000
   1    0.0034856664081914
   2    -0.0019426170541168
   3    -0.00055954611117706
   4    -1.0959790077364e-09
   5    -1.0973731055205e-09
   6    -1.0946318115033e-09
   7    1.9044245316071e-09
   8    1.9049116240873e-09
   9    1.9072599630865e-09
  10    2.4163965246938e-05
  11      0.40394456667133
  12      0.40402238925872
  13    -2.613653572556e-05
  14      0.40392511324671
  15    7.1327028070956e-07
  16    0.0021090069919409
  17    0.0021071763013977
  18    -9.0787246924902e-07
  19    0.0021094683887801
  20    -5.9927147611928e-10
  21    3.685920265061e-10
  22    3.6845197340498e-10
  23    2.476981836772e-14
  24    8.7267063568364e-10
  25    -4.7384016796385e-10
  26    4.7369899649979e-10
  27    0.0034619837438033
  28    -0.001922113029879
  29    -0.00055156150294558
  30    1.1052037359583e-09
  31    1.1041377762581e-09
  32    1.1019688041668e-09
  33    -1.9171031916238e-09
  34    -1.9162528798699e-09
  35    -1.9189943228725e-09
  36    -2.1492595451629e-05
  37       0.4041867519051
  38      0.40410902213163
  39    2.6389153894674e-05
  40       0.4042064397494
  41    -8.6424362938178e-07
  42    0.0021065402895787
  43    0.0021083686534209
  44    8.9574960887267e-07
  45    0.0021060771332737
  46    5.9685903560584e-10
  47    -3.6572959516033e-10
  48    -3.6581908941414e-10
  49    -8.2104879778571e-14
  50    -8.7260675939605e-10
  51    4.7145246278442e-10
  52    -4.7170247491398e-10
  53    -0.013585425335556
  54    -0.010542562045006
  55    7.8138441467576e-05
  56    4.3964174343122e-05
  57    3.528895914252e-05
  58    -1.1080708138083e-05
  59    -6.7610130192554e-06
  60    -5.662117960316e-06
  61    5.4223263877308e-09
  62    -0.006302344408091
  63    -0.0063023449233844
  64    6.8580280177401e-10
  65    -0.0063023443830162
  66    -0.013585419230037
  67      -0.0105425618116
  68    -7.8138569731419e-05
  69    -4.3964279252459e-05
  70    -3.5289053733581e-05
  71    1.1080708093151e-05
  72    6.7610090688217e-06
  73    5.6621113568316e-06
  74    5.4222019014801e-09
  75    -0.0063023456647208
  76    -0.0063023461799435
  77    6.8579111521457e-10
  78    -0.0063023456386608
 Sym= A
 Ene=               3
 Spin= Alpha
 Occup=    1.00000
   1    4.0591689000358e-07
   2    -2.3712467760536e-07
   3    -9.3362672489639e-08
   4    -3.7601823480912e-09
   5    -3.0376468169183e-09
   6    6.7884814115341e-09
   7    2.0215264913451e-09
   8    1.6333993090746e-09
   9    -3.6496684143363e-09
  10     -0.27678274120834
  11     -0.21682860216132
  12     -0.26842159148799
  13     0.017002049483852
  14      0.48535417064511
  15    -0.0092054315393206
  16    0.0049260258951341
  17    0.0060988174769883
  18    0.00056589498737541
  19    -0.011024144953959
  20    -1.7556849753762e-09
  21    -1.3478747401554e-09
  22    -1.2888630751961e-09
  23    6.987492156033e-11
  24    1.1331121555835e-12
  25    1.8624974025105e-10
  26    4.3782060887593e-12
  27    2.2747858168998e-07
  28    -1.054516513376e-07
  29    1.0111699963347e-09
  30    -3.7611813267174e-09
  31    -3.0384625167018e-09
  32    6.7883255293788e-09
  33    2.022645351057e-09
  34    1.6342307553326e-09
  35    -3.6516800488677e-09
  36      0.27673261462612
  37      0.21655939996809
  38      0.26813439417653
  39    -0.016989073865177
  40     -0.48458751137055
  41    0.0092165101034959
  42    -0.0049254210721097
  43    -0.0060977332471118
  44    -0.00056536077801327
  45     0.011023666575948
  46    -1.7553493518334e-09
  47    -1.3474806557976e-09
  48    -1.2884653191226e-09
  49    6.9972496426809e-11
  50    2.9348693812497e-13
  51    1.8644849858273e-10
  52    3.9658233449161e-12
  53    -1.1944821882261e-06
  54    -9.160519353459e-07
  55     -0.11278098392393
  56    -0.091095803092179
  57      0.20387775413417
  58     0.014102938409992
  59     0.011391270699544
  60    -0.025494424224608
  61    6.5968700410485e-07
  62    2.0145952490516e-06
  63    2.0749112207221e-06
  64    1.4619782878179e-07
  65    -5.7345864270241e-06
  66    -1.1944851204738e-06
  67    -9.1605181477631e-07
  68      0.11278106552646
  69     0.091095869029566
  70     -0.20387790124273
  71    -0.014102952716165
  72    -0.011391282257464
  73     0.025494450047522
  74    6.5968470751753e-07
  75    2.0145965086066e-06
  76    2.0749126962336e-06
  77    1.4619804725852e-07
  78    -5.7345884653972e-06
 Sym= A
 Ene=               4
 Spin= Alpha
 Occup=    1.00000
   1    3.1160120059728e-07
   2    -1.6670801603129e-07
   3    -4.1089285100665e-08
   4    -5.6755594051774e-09
   5    6.0932209596562e-09
   6    -4.1692374321205e-10
   7    3.0459289669068e-09
   8    -3.2700145695817e-09
   9    2.2405637818459e-10
  10     0.016992803531864
  11      0.43522305202947
  12     -0.40533348491556
  13      0.27678971489353
  14     -0.02978242660943
  15    0.00056476368459049
  16    -0.0098857442470237
  17    0.0092092455818335
  18     0.009206427261938
  19    0.00067710416657961
  20    1.0755539148198e-10
  21    -3.9857515600444e-10
  22    5.6062510323302e-10
  23    1.1393076672488e-09
  24    -9.7415630401432e-14
  25    1.5447692006553e-09
  26    1.5559765224061e-09
  27    3.3294926234874e-07
  28    -1.8189640565404e-07
  29    -5.3083754615025e-08
  30    -5.6746277775342e-09
  31    6.0930017971373e-09
  32    -4.1639398875381e-10
  33    3.0478189854641e-09
  34    -3.2729189031139e-09
  35    2.2376901385168e-10
  36    -0.016998342568277
  37     -0.43455351772701
  38      0.40487897649363
  39     -0.27672533634816
  40     0.029781453413632
  41    -0.00056651858333711
  42    0.0098851836347456
  43    -0.0092077214745894
  44    -0.0092157535410134
  45    -0.00067683205989672
  46    1.078097806824e-10
  47    -3.9974086326876e-10
  48    5.6161149548258e-10
  49    1.1388650400015e-09
  50    -7.0415941805449e-14
  51    1.5450585788759e-09
  52    1.5563224205969e-09
  53    -1.2161350223416e-06
  54    -9.3251617620046e-07
  55     -0.17030361435265
  56      0.18282355893233
  57    -0.012520054496298
  58     0.021296072625132
  59    -0.022861649797097
  60    0.0015656037071756
  61    -2.039625797369e-07
  62    -4.9777263006035e-06
  63    3.2861265826072e-06
  64    -3.909776636281e-07
  65    1.661924627009e-08
  66    -1.2161335869901e-06
  67    -9.3251620193919e-07
  68       0.1703037373459
  69     -0.18282369100397
  70     0.012520063519546
  71     -0.02129609420354
  72     0.022861672965397
  73    -0.0015656052918009
  74    -2.0396260538732e-07
  75    -4.9777275319863e-06
  76    3.2861273268078e-06
  77    -3.909768396673e-07
  78    1.6619130285656e-08
 Sym= A
 Ene=               5
 Spin= Alpha
 Occup=    1.00000
   1    -0.042916568484534
   2      0.03718233951228
   3     0.014404443662839
   4    -1.9157891581294e-08
   5    -1.9161395996688e-08
   6    -1.911320534466e-08
   7    1.3339724049902e-08
   8    1.3340371137976e-08
   9    1.3329506357687e-08
  10    -7.3003567117601e-07
  11      0.36388379909915
  12      0.36387187831587
  13    7.054061221258e-07
  14      0.36388733503497
  15    -4.782556739675e-08
  16    -0.0029978713224956
  17    -0.002997908782728
  18    -1.2609401372376e-07
  19    -0.0029978902589879
  20    3.9764940900898e-09
  21    -2.4420013660579e-09
  22    -2.4425836384511e-09
  23    6.2237145791136e-14
  24    4.7688097902271e-11
  25    3.1528790765163e-09
  26    -3.1535299758027e-09
  27     0.042918435794937
  28    -0.037183454476872
  29    -0.014404633573296
  30    -1.9156237356692e-08
  31    -1.9159656626391e-08
  32    -1.9112060764228e-08
  33    1.3351449240251e-08
  34    1.3352615361856e-08
  35    1.3339307211006e-08
  36    -5.6140347569206e-07
  37     -0.36365285477769
  38      -0.3636648248374
  39    7.0558911825174e-07
  40     -0.36365034810173
  41    2.4596949642856e-07
  42    0.0029989131424454
  43    0.0029988825483426
  44    -9.907705811506e-08
  45    0.0029989493514176
  46    3.9762433315697e-09
  47    -2.4427099978395e-09
  48    -2.4432384248028e-09
  49    -9.68432963624e-14
  50    4.6539322262772e-11
  51    3.1527453707203e-09
  52    -3.1535855660128e-09
  53    -3.6835790083589e-06
  54    -2.907388468865e-06
  55     -0.18984958841031
  56     -0.18984977804699
  57     -0.18984791543554
  58     0.028465665328784
  59     0.028465699322766
  60      0.02846537343336
  61    9.6556242432592e-09
  62    -1.7825931363014e-06
  63    -1.6001823039008e-06
  64    -1.1526784235915e-08
  65    -1.828631286211e-06
  66    -3.6836184893864e-06
  67    -2.9073660330652e-06
  68       0.1898500498687
  69      0.18985023959365
  70       0.1898483757632
  71    -0.028465749184786
  72    -0.028465783194718
  73    -0.028465457084621
  74    9.6569652213371e-09
  75    -1.7825938764451e-06
  76    -1.6001831565899e-06
  77    -1.1526533973825e-08
  78    -1.8286327551599e-06
 Sym= A
 Ene=               6
 Spin= Alpha
 Occup=    1.00000
   1    8.3228439214376e-08
   2    3.0972339255715e-08
   3    -9.5541349365767e-08
   4    -7.1571582367347e-10
   5    -8.1180966852715e-10
   6    1.5285572254837e-09
   7    1.7546180447421e-09
   8    1.9955361185227e-09
   9    -3.7655845785728e-09
  10     -0.73117221099044
  11     0.040398379855466
  12     0.035520512979609
  13    -0.027197100167387
  14    -0.075916044133825
  15    -0.052677731391276
  16    0.0069545142523382
  17    0.0061125903480608
  18    -0.0019636642312782
  19    -0.013066738453198
  20    -1.16627424105e-09
  21    -7.340145016326e-10
  22    -7.6233533714237e-10
  23    -2.14333204684e-11
  24    -2.5950670740715e-13
  25    1.181359342188e-10
  26    -1.8992488422433e-10
  27    5.255694496521e-08
  28    1.7323925019578e-08
  29    -1.029831304892e-07
  30    7.1878809139682e-10
  31    8.2039982276955e-10
  32    -1.5395530115777e-09
  33    -1.7593341498286e-09
  34    -2.0045225542858e-09
  35    3.7781869081647e-09
  36     -0.73201807703597
  37     0.040512356421004
  38     0.035562644471427
  39    -0.027426138538437
  40    -0.076072686251488
  41    -0.052703984926539
  42    0.0069653995390313
  43    0.0061165689144655
  44    -0.0019704068388204
  45    -0.013081583433068
  46    1.1708877550856e-09
  47    7.359520957857e-10
  48    7.6569308464432e-10
  49    2.1595940397065e-11
  50    1.1096501300083e-13
  51    -1.1918520463933e-10
  52    1.9270686285868e-10
  53    -1.622724150119e-07
  54    -7.6748600612468e-08
  55    -7.3494287670257e-05
  56    -0.00020594650684095
  57    0.00027926110290361
  58    1.6489213992653e-05
  59    4.6237793609814e-05
  60    -6.2699442317619e-05
  61    -0.021463727767881
  62    -0.0033172575844676
  63    -0.0029143292167697
  64    -0.00080127541125088
  65    0.0062314731589214
  66    -1.6231638911887e-07
  67    -7.6756429309498e-08
  68    7.3494254224967e-05
  69    0.00020594642331606
  70    -0.00027926096263276
  71    -1.6489211924482e-05
  72    -4.6237776174304e-05
  73    6.2699420766234e-05
  74    -0.021463732232072
  75    -0.0033172577331957
  76    -0.0029143293481888
  77    -0.00080127557765811
  78     0.006231473422059
 Sym= A
 Ene=               7
 Spin= Alpha
 Occup=    1.00000
   1    -1.4134846581103e-08
   2    -7.598938519214e-09
   3    -1.1291591718354e-08
   4    1.3521186122891e-09
   5    -1.2934329106988e-09
   6    -5.8612378681525e-11
   7    -3.3241191981798e-09
   8    3.1822442995862e-09
   9    1.4137602648904e-10
  10     0.027406166656171
  11     0.064348742428462
  12    -0.067203054709551
  13     -0.73136834519082
  14    0.0028540497952596
  15    0.0019697780019858
  16      0.01107422424707
  17    -0.011563949412325
  18    -0.052683487766857
  19    0.00048975030839596
  20    4.400756428298e-11
  21    4.1781713724413e-10
  22    -3.6133514382587e-10
  23    -5.7648710216653e-10
  24    -1.5054373958583e-14
  25    -9.7794442381466e-10
  26    -9.6568653510125e-10
  27    2.1087641683908e-08
  28    1.0409297428163e-08
  29    2.6937553829904e-10
  30    -1.3569269012681e-09
  31    1.3009430558232e-09
  32    5.607429323301e-11
  33    3.3329012721193e-09
  34    -3.1927777280573e-09
  35    -1.3984136939676e-10
  36     0.027217280709124
  37     0.064440200439895
  38    -0.067260015513736
  39     -0.73182247878441
  40    0.0028203759314832
  41    0.0019643045172496
  42     0.011082818875548
  43    -0.011569273650259
  44     -0.05269829050533
  45    0.0004864701039721
  46    -4.311967079971e-11
  47    -4.192757669879e-10
  48    3.6358085079836e-10
  49    5.7593611043202e-10
  50    -8.5148693925618e-15
  51    9.8059655847421e-10
  52    9.6919864962427e-10
  53    -8.6692223464069e-09
  54    -4.0991760632485e-09
  55    9.7025131933174e-05
  56    -0.00016004376379993
  57    6.3262250390227e-05
  58    -2.1754266469653e-05
  59    3.5928137944422e-05
  60    -1.4207901657618e-05
  61    0.00080127874838038
  62    -0.0052803030692019
  63    0.0055129368905447
  64    -0.021463734290914
  65    -0.00023264010303883
  66    -8.6703437982902e-09
  67    -4.099347998693e-09
  68    -9.7025079497342e-05
  69    0.00016004369129822
  70    -6.3262227320338e-05
  71    2.175426776004e-05
  72    -3.5928131076994e-05
  73    1.4207893281209e-05
  74    0.00080127891512381
  75    -0.005280303296343
  76    0.0055129371274278
  77    -0.021463738750947
  78    -0.00023264011323151
 Sym= A
 Ene=               8
 Spin= Alpha
 Occup=    1.00000
   1    -9.6597136404066e-10
   2    -9.3048399492248e-09
   3    4.2773687206986e-08
   4    -7.9404964226676e-09
   5    4.984139207507e-09
   6    2.9529536236607e-09
   7    5.451484692475e-09
   8    -3.4233187397052e-09
   9    -2.0273419237615e-09
  10     -0.23354754212482
  11    -0.055930865559727
  12     0.089067456681021
  13      0.59004029559715
  14    -0.033136411556524
  15    -0.0073356464585138
  16    -0.0071345399068014
  17     0.011361391288164
  18     0.018534696913719
  19    -0.0042267888691794
  20    -1.1062936139445e-09
  21    -1.7574189181998e-09
  22    8.0534753062723e-10
  23    5.084478075134e-10
  24    -1.2624211777845e-13
  25    2.399114533053e-09
  26    1.7372211349732e-09
  27    8.1997466736844e-09
  28    -3.0143354506528e-08
  29    5.1682896351266e-08
  30    -7.9371619050174e-09
  31    4.9821904041053e-09
  32    2.9511313677597e-09
  33    5.4382536989335e-09
  34    -3.4147050816763e-09
  35    -2.0224788361064e-09
  36      0.23341736598436
  37     0.055900033006169
  38    -0.089023365658233
  39     -0.58963129379038
  40      0.03312261129429
  41    0.0073266338808648
  42    0.0071294591008729
  43    -0.011354062169678
  44    -0.018505949947878
  45    0.0042245389478877
  46    -1.1058279505206e-09
  47    -1.7575137274217e-09
  48    8.0620350974735e-10
  49    5.0605561032163e-10
  50    -1.0153145751174e-13
  51    2.3987967157578e-09
  52    1.7365048382802e-09
  53    6.7761105215879e-08
  54    3.4244144627575e-08
  55      0.39398372897788
  56     -0.24740151200828
  57     -0.14658238855141
  58    -0.089471155102493
  59     0.056183269846716
  60     0.033287889395275
  61    -1.8675258430267e-06
  62    1.218696524556e-06
  63    -1.7542010918937e-06
  64    5.9195340104312e-06
  65    5.3963496248978e-07
  66    6.7761708458143e-08
  67    3.4244021138433e-08
  68     -0.39398357681731
  69      0.24740141648264
  70      0.14658233197799
  71     0.089471105212348
  72    -0.056183238534406
  73    -0.033287870852811
  74    -1.8675256872618e-06
  75    1.2186951508621e-06
  76    -1.7542004363983e-06
  77    5.9195359076702e-06
  78    5.3963534950719e-07
 Sym= A
 Ene=               9
 Spin= Alpha
 Occup=    1.00000
   1    1.5133436449704e-08
   2    -3.0171652427057e-08
   3    2.8919661089464e-11
   4    1.1767758205951e-09
   5    6.2932073261533e-09
   6    -7.4597945080392e-09
   7    -8.0565079354876e-10
   8    -4.3200248086897e-09
   9    5.1234219807921e-09
  10      0.59034213675738
  11    -0.070586438246456
  12    -0.013163047832182
  13      0.23370408551445
  14     0.083748039303003
  15     0.018557029926171
  16    -0.0090051386518255
  17    -0.0016792088058449
  18    0.0073472299171182
  19     0.010684136321955
  20    2.7952648623352e-09
  21    6.9572965553405e-10
  22    1.7101235120371e-09
  23    2.0138023562796e-10
  24    4.176008250614e-13
  25    -1.7026850939312e-11
  26    1.6547553821336e-09
  27    -1.5926066241594e-08
  28    4.4441375595783e-08
  29    -3.5520915994184e-08
  30    1.1763389525248e-09
  31    6.2898702768311e-09
  32    -7.4536478919683e-09
  33    -8.0388662483878e-10
  34    -4.3069989017978e-09
  35    5.1071711695041e-09
  36     -0.58932896005235
  37       0.0704900007871
  38     0.013149905062353
  39     -0.23326081416432
  40    -0.083638234506001
  41    -0.018483590184835
  42     0.008989148885519
  43    0.0016770186582512
  44    -0.0073150566514545
  45    -0.010665946538368
  46    2.7928790294632e-09
  47    6.9402641359152e-10
  48    1.7087489210811e-09
  49    2.002106254837e-10
  50    2.8702834168478e-13
  51    -1.8400346860155e-11
  52    1.6549454702223e-09
  53    -2.5594698040433e-08
  54    -1.3345462576844e-08
  55     -0.05820777759753
  56     -0.31209570976141
  57      0.37030408860184
  58     0.013218643228876
  59      0.07087494405941
  60    -0.084093600526402
  61    1.4906391775989e-05
  62    3.8371043442056e-06
  63    5.2632950783744e-07
  64    6.5246249750427e-06
  65    -4.3657743643448e-06
  66    -2.5598191363455e-08
  67    -1.3344978744977e-08
  68     0.058207755070533
  69      0.31209558918947
  70     -0.37030394569518
  71    -0.013218635827436
  72    -0.070874904514687
  73     0.084093553690702
  74    1.4906393997057e-05
  75    3.8371047916587e-06
  76      5.2633107188e-07
  77    6.5246267951317e-06
  78    -4.3657745590508e-06
