[Molden Format]
made by pyscf v[2.8.0]
[Atoms] (AU)
Ni   1   18     1.97003948485908     1.97003948485908     1.97003948485908
Ni   2   18     9.85019742429539     9.85019742429539     9.85019742429539
O   3   6     5.91011845457723     5.91011845457723     5.91011845457723
O   4   6    13.79027639401354    13.79027639401354    13.79027639401354
[GTO]
1 0
 s    5 1.00
       10.077427756816   -0.16816538591041
        5.847735848326   -0.31203986825241
        2.494032826008    0.76231213094128
        0.988354848429    0.55437604679043
        0.344978242158    0.03155701098717
 s    5 1.00
       10.077427756816   0.058000950062097
        5.847735848326    0.14653254811322
        2.494032826008   -0.50777581008225
        0.988354848429    -1.0938070247199
        0.344978242158    0.66529670756055
 s    5 1.00
       10.077427756816  0.0053460448296085
        5.847735848326   -0.08418457883001
        2.494032826008  0.0015718453997724
        0.988354848429   -0.87757432617674
        0.344978242158     1.5777647329419
 p    5 1.00
       10.077427756816   -0.12236774170237
        5.847735848326    0.23342048133724
        2.494032826008    0.52638460167342
        0.988354848429    0.39425731817561
        0.344978242158   0.051608556148131
 p    5 1.00
       10.077427756816  -0.012616972687739
        5.847735848326  -0.025194607896872
        2.494032826008   -0.22268415555677
        0.988354848429   -0.22497484726751
        0.344978242158     1.1712751328261
 d    5 1.00
       10.077427756816    0.08918252306285
        5.847735848326    0.25567343360121
        2.494032826008     0.3554995300545
        0.988354848429    0.34934981895974
        0.344978242158    0.26737625455372
 d    5 1.00
       10.077427756816  -0.093993451492197
        5.847735848326   -0.36074197756838
        2.494032826008    -0.5570889903816
        0.988354848429   -0.15334190860524
        0.344978242158    0.42481173879085
 f    5 1.00
       10.077427756816  -0.0083683152125103
        5.847735848326    0.03763133075813
        2.494032826008   0.027363949027932
        0.988354848429    0.87387054931809
        0.344978242158    0.16755768848104

2 0
 s    5 1.00
       10.077427756816   -0.16816538591041
        5.847735848326   -0.31203986825241
        2.494032826008    0.76231213094128
        0.988354848429    0.55437604679043
        0.344978242158    0.03155701098717
 s    5 1.00
       10.077427756816   0.058000950062097
        5.847735848326    0.14653254811322
        2.494032826008   -0.50777581008225
        0.988354848429    -1.0938070247199
        0.344978242158    0.66529670756055
 s    5 1.00
       10.077427756816  0.0053460448296085
        5.847735848326   -0.08418457883001
        2.494032826008  0.0015718453997724
        0.988354848429   -0.87757432617674
        0.344978242158     1.5777647329419
 p    5 1.00
       10.077427756816   -0.12236774170237
        5.847735848326    0.23342048133724
        2.494032826008    0.52638460167342
        0.988354848429    0.39425731817561
        0.344978242158   0.051608556148131
 p    5 1.00
       10.077427756816  -0.012616972687739
        5.847735848326  -0.025194607896872
        2.494032826008   -0.22268415555677
        0.988354848429   -0.22497484726751
        0.344978242158     1.1712751328261
 d    5 1.00
       10.077427756816    0.08918252306285
        5.847735848326    0.25567343360121
        2.494032826008     0.3554995300545
        0.988354848429    0.34934981895974
        0.344978242158    0.26737625455372
 d    5 1.00
       10.077427756816  -0.093993451492197
        5.847735848326   -0.36074197756838
        2.494032826008    -0.5570889903816
        0.988354848429   -0.15334190860524
        0.344978242158    0.42481173879085
 f    5 1.00
       10.077427756816  -0.0083683152125103
        5.847735848326    0.03763133075813
        2.494032826008   0.027363949027932
        0.988354848429    0.87387054931809
        0.344978242158    0.16755768848104

3 0
 s    5 1.00
       10.389228018317   0.096173629276308
        3.849621072005    0.10660531634684
        1.388401188741   -0.33089834130169
        0.496955043655    -0.6496800688702
         0.16249161504   -0.18463001807573
 s    5 1.00
       10.389228018317   0.073630541584408
        3.849621072005    0.12300997725073
        1.388401188741   -0.34343118342323
        0.496955043655   -0.10206354789477
         0.16249161504     1.1731714191581
 p    5 1.00
       10.389228018317  -0.057562550918086
        3.849621072005    -0.1784919811951
        1.388401188741   -0.35468525474322
        0.496955043655   -0.42655539522159
         0.16249161504    -0.2416879946641
 p    5 1.00
       10.389228018317  -0.021265755186923
        3.849621072005  -0.0049739296849897
        1.388401188741    -0.1779930881255
        0.496955043655    0.30108256988861
         0.16249161504    0.83447656856867
 d    5 1.00
       10.389228018317   0.018871300922529
        3.849621072005   0.038532527740515
        1.388401188741    0.46305094876991
        0.496955043655    0.56500599531169
         0.16249161504   0.096713771818926

4 0
 s    5 1.00
       10.389228018317   0.096173629276308
        3.849621072005    0.10660531634684
        1.388401188741   -0.33089834130169
        0.496955043655    -0.6496800688702
         0.16249161504   -0.18463001807573
 s    5 1.00
       10.389228018317   0.073630541584408
        3.849621072005    0.12300997725073
        1.388401188741   -0.34343118342323
        0.496955043655   -0.10206354789477
         0.16249161504     1.1731714191581
 p    5 1.00
       10.389228018317  -0.057562550918086
        3.849621072005    -0.1784919811951
        1.388401188741   -0.35468525474322
        0.496955043655   -0.42655539522159
         0.16249161504    -0.2416879946641
 p    5 1.00
       10.389228018317  -0.021265755186923
        3.849621072005  -0.0049739296849897
        1.388401188741    -0.1779930881255
        0.496955043655    0.30108256988861
         0.16249161504    0.83447656856867
 d    5 1.00
       10.389228018317   0.018871300922529
        3.849621072005   0.038532527740515
        1.388401188741    0.46305094876991
        0.496955043655    0.56500599531169
         0.16249161504   0.096713771818926

[5d]
[7f]
[9g]
[core]
1 : 10
2 : 10
3 : 2
4 : 2

[MO]
 Sym= A
 Ene=               0
 Spin= Alpha
 Occup=    1.00000
   1      0.64210410228036
   2    -0.067896713911672
   3     0.020458876079406
   4    1.3276555267185e-09
   5    1.3264847991633e-09
   6    1.3382582704916e-09
   7    8.1243371867933e-11
   8    8.1310506241829e-11
   9    8.0539431045152e-11
  10    1.5912018609383e-08
  11    -0.00057053795652604
  12    -0.00057053295496355
  13    -2.2964845086748e-08
  14    -0.00057053134379083
  15    -2.1250751499919e-08
  16    0.00073560421435714
  17    0.00073559895902083
  18    2.9394616151008e-08
  19    0.00073559705028941
  20    1.592800901301e-11
  21    -9.7886000677353e-12
  22    -9.793147390413e-12
  23    1.3132716242368e-15
  24    -8.7465868093898e-12
  25    1.2670629179404e-11
  26    -1.2674337152882e-11
  27      0.63288552584864
  28    -0.066931709228397
  29     0.020168870519608
  30    -1.310712949519e-09
  31    -1.3107199786043e-09
  32    -1.3166464833206e-09
  33    -8.4492892319464e-11
  34    -8.4513540483218e-11
  35    -8.3985731756791e-11
  36    -2.2862717965231e-08
  37    -0.00059325390542796
  38    -0.00059325791598093
  39    2.1639656516641e-08
  40    -0.0005932449056134
  41    2.8635504899245e-08
  42    0.0006969933559354
  43    0.00069699755172934
  44    -2.7891977974261e-08
  45    0.0006969836934192
  46    -1.7741235339624e-11
  47    1.0902561925171e-11
  48    1.0907293081745e-11
  49    -7.5773698313099e-16
  50    8.6106788464345e-12
  51    -1.4102846520849e-11
  52    1.4107680550654e-11
  53    7.0429684656063e-05
  54    0.0060238251167252
  55    4.9412282591439e-07
  56    4.9343978742322e-07
  57    4.9325954885517e-07
  58    2.6596520231755e-05
  59    2.660456853118e-05
  60    2.6606621573152e-05
  61    2.9520642719326e-10
  62    -5.8602978822562e-06
  63    -5.8603767239778e-06
  64    -7.9799986725047e-12
  65    -5.8612846723096e-06
  66    7.0429559429095e-05
  67    0.0060238249367718
  68    -4.9412646132772e-07
  69    -4.9344343176392e-07
  70    -4.9326313894976e-07
  71    -2.6596537198309e-05
  72    -2.6604585479901e-05
  73    -2.6606638604487e-05
  74    2.9565751562304e-10
  75    -5.8602876086261e-06
  76    -5.860366455927e-06
  77    -7.9528098431363e-12
  78    -5.8612744536856e-06
 Sym= A
 Ene=               1
 Spin= Alpha
 Occup=    1.00000
   1     -0.63308489530033
   2     0.066267618678194
   3    -0.019917165475258
   4    -1.3043007350855e-09
   5    -1.3031474303885e-09
   6    -1.3147289130777e-09
   7    -6.5266874038322e-11
   8    -6.5336779653091e-11
   9    -6.4513458837593e-11
  10    -1.8459463892079e-08
  11    -0.0015756472836395
  12    -0.0015756518756005
  13    2.3864918321465e-08
  14    -0.0015756541060246
  15    1.907588281146e-08
  16    -0.002665356521285
  17    -0.0026653508757147
  18    -2.6980328125575e-08
  19    -0.0026653494119039
  20    -1.2708378121608e-11
  21    7.8370417973551e-12
  22    7.8424048183648e-12
  23    -1.3266354721974e-15
  24    9.1282285985637e-12
  25    -1.0149038461853e-11
  26    1.0153741373464e-11
  27      0.64230057456642
  28    -0.067242178214862
  29     0.020210869088519
  30    -1.325107860239e-09
  31    -1.3251188757749e-09
  32    -1.3310919600392e-09
  33    -6.9710514864984e-11
  34    -6.9736552870638e-11
  35    -6.9134368512692e-11
  36    -2.2924911055949e-08
  37    0.0015672392361691
  38    0.0015672356075741
  39    2.3552032201203e-08
  40    0.0015672484681871
  41    2.7356465239793e-08
  42    0.0026757085652537
  43      0.00267571331095
  44    -2.6201499765713e-08
  45    0.0026756984731331
  46    -1.3208291960083e-11
  47    8.1535059700108e-12
  48    8.1601412491035e-12
  49    -3.9473657868242e-16
  50    9.3712107433236e-12
  51    -1.0549488128417e-11
  52    1.0557360753144e-11
  53    5.0742080733931e-07
  54    4.3533606322876e-05
  55    -6.8223839997303e-05
  56    -6.8223754518549e-05
  57    -6.8224533304489e-05
  58    -0.0036799957604528
  59    -0.0036799958212724
  60    -0.0036799960384716
  61    -1.8940793588932e-09
  62    -4.2608670766755e-08
  63    -4.1427635496715e-08
  64    2.1788850602057e-09
  65    -4.2928494612271e-08
  66    5.074171958557e-07
  67    4.3533596389901e-05
  68    6.8223819096488e-05
  69    6.8223733630985e-05
  70    6.8224512233804e-05
  71    0.0036799957569472
  72    0.0036799958176822
  73    0.0036799960361505
  74    -1.8941017685851e-09
  75    -4.2608003332191e-08
  76    -4.142696920809e-08
  77    2.1788815091972e-09
  78    -4.2927834078155e-08
 Sym= A
 Ene=               2
 Spin= Alpha
 Occup=    1.00000
   1    -7.6925797696526e-12
   2    1.2590494463265e-12
   3    -8.4235186594621e-13
   4     -0.29220854755955
   5     -0.28609907740636
   6       0.5783193515958
   7    0.0026705616089944
   8    0.0026147530674253
   9    -0.0052853662026431
  10    9.8666077632219e-10
  11    2.7623669669639e-10
  12    2.8186584592632e-10
  13    -6.1464486371458e-12
  14    -5.6121733383408e-10
  15    1.1460654496491e-10
  16    -1.8734927894504e-11
  17    -1.9001154639199e-11
  18    -6.9416924825307e-13
  19    4.028301828468e-11
  20    -0.0023686652237583
  21    -0.00034118173557864
  22    -0.00032310974722345
  23    -3.5269656995193e-06
  24    -4.1106292006872e-09
  25    0.0012495671354676
  26    -0.0012319331938162
  27    -3.895538134877e-12
  28    8.270768509608e-13
  29    -8.4526577717692e-13
  30      0.29206309358497
  31      0.28592803647692
  32     -0.57795846137711
  33    -0.0026689896518203
  34    -0.0026128985919606
  35    0.0052815489100273
  36    9.7647297229621e-10
  37    2.7826874273316e-10
  38    2.8429438965837e-10
  39    -5.9427253060987e-12
  40    -5.6419793635742e-10
  41    1.0688155635135e-10
  42    -1.7764371110547e-11
  43    -1.8117253521022e-11
  44    -6.7212331488754e-13
  45    3.8039501465137e-11
  46    0.0023667868055784
  47    0.00034091556607319
  48    0.00032273001477727
  49    3.4918391131146e-06
  50    -1.8083704425323e-08
  51    -0.0012487951143846
  52    0.0012310856280964
  53    -4.8651116343367e-08
  54     4.79455874016e-08
  55    -4.7326510278149e-07
  56    -5.70608179748e-07
  57    1.1421028264528e-06
  58    6.8006135047306e-07
  59    7.9192391134428e-07
  60    -1.5941134113797e-06
  61    -0.0031615038960344
  62    0.0001790180749752
  63    0.00018285019182708
  64    1.9328865973369e-05
  65    -0.00036188172487355
  66    4.8650544935928e-08
  67    -4.794525562205e-08
  68    -4.7326626176814e-07
  69    -5.7060931713958e-07
  70    1.1421052369967e-06
  71    6.8005391163811e-07
  72    7.9191668500373e-07
  73    -1.5940984328075e-06
  74    0.0031615039118542
  75    -0.00017901806008807
  76    -0.00018285017661348
  77    -1.9328866082267e-05
  78    0.00036188169539433
 Sym= A
 Ene=               3
 Spin= Alpha
 Occup=    1.00000
   1    7.0349869996807e-13
   2    -1.0809086000116e-13
   3    6.5210026387403e-14
   4     -0.49904314941252
   5      0.50260433728264
   6    -0.0035350233501458
   7    0.0045608332857682
   8    -0.0045933927949079
   9    3.232408553382e-05
  10    -5.901373614441e-12
  11    -4.9033529833091e-10
  12    4.869544845907e-10
  13    -9.840122180699e-10
  14    3.7449218948649e-12
  15    -7.0399066285833e-13
  16    3.6586456926339e-11
  17    -3.6377137757698e-11
  18    -1.1439671980891e-10
  19    -4.0861831795099e-13
  20    1.4482637489588e-05
  21    -0.0014810083730352
  22    0.0014851491074855
  23    -0.00057411723079156
  24    -1.2899472778669e-08
  25    0.0014382169946362
  26    0.0014534772434402
  27    4.1008061808812e-14
  28    -2.9078084112629e-14
  29    5.3166159345216e-14
  30      0.49879348804931
  31     -0.50230305043069
  32    0.0035336597484975
  33    -0.0045581551112139
  34     0.004590220005711
  35    -3.2271978436818e-05
  36    -5.993419064151e-12
  37    -4.9164199891327e-10
  38    4.8817940142086e-10
  39    -9.7566605957487e-10
  40    3.4095099177166e-12
  41    -6.3439489387475e-13
  42    3.4127463257581e-11
  43    -3.3942103167205e-11
  44    -1.0653689648221e-10
  45    -3.0773486608844e-13
  46    -1.4466670411863e-05
  47    0.0014800697430392
  48    -0.001484051357941
  49    0.00057384857424716
  50    -1.2242167647564e-08
  51    -0.0014372721054911
  52    -0.0014523441047789
  53    4.7458718055261e-09
  54    -4.6507070799765e-09
  55    -7.9715730767385e-07
  56    9.3981493590622e-07
  57    -3.1477585003227e-08
  58    1.152891965285e-06
  59    -1.3249788618529e-06
  60    3.3477967078686e-08
  61    1.9328902034503e-05
  62    -0.00031450224004425
  63    0.00031229052028953
  64     0.003161503392945
  65    2.2131247206669e-06
  66    -4.7458371749448e-09
  67    4.6506832760174e-09
  68    -7.971593241153e-07
  69    9.3981695860738e-07
  70    -3.147760670046e-08
  71    1.1528793792226e-06
  72    -1.324966269669e-06
  73    3.3477885941363e-08
  74    -1.9328902115642e-05
  75    0.0003145022144909
  76    -0.0003122904949395
  77    -0.0031615034082231
  78    -2.213124563077e-06
 Sym= A
 Ene=               4
 Spin= Alpha
 Occup=    1.00000
   1    -2.444335499015e-09
   2    5.0573803765381e-12
   3    5.8444958198334e-10
   4      0.40815441701983
   5      0.40831520097913
   6      0.40836391498009
   7    -0.0054028006210966
   8    -0.005404504546251
   9    -0.0054050046737843
  10    1.2670426468851e-12
  11    7.3783571044544e-10
  12    7.3773321819389e-10
  13    -3.1713767664519e-14
  14    7.3503813274637e-10
  15    7.0124913056585e-13
  16    -5.6704808105899e-11
  17    -5.6588290361718e-11
  18    2.6427117901661e-15
  19    -5.5344101234843e-11
  20    -0.0016338196987985
  21    0.00099987668030374
  22    0.0010004660426038
  23    -9.7631329351898e-08
  24    -0.00034248057918334
  25    -0.0012907855617448
  26     0.001291388824432
  27    -2.4347940017599e-09
  28    1.5835715810608e-11
  29    5.6494989345925e-10
  30     -0.40807438675141
  31     -0.40791191579869
  32     -0.40787880378284
  33    0.0054026619353861
  34     0.005400943454895
  35    0.0054005770656282
  36    -2.932266434841e-13
  37    7.4270899155547e-10
  38    7.4253168466296e-10
  39    7.1047707191495e-14
  40    7.4125020890947e-10
  41    9.085993447448e-13
  42    -5.1192718798914e-11
  43    -5.1164499803102e-11
  44    1.0749020550932e-13
  45    -5.0325143971543e-11
  46     0.001631557428951
  47    -0.00099974135241151
  48    -0.0009991478301822
  49    -9.7910463620324e-08
  50     0.000342141355997
  51    0.0012906915940188
  52    -0.0012900870472872
  53    0.0058550574035108
  54    -0.0057234069977174
  55    -6.6653296431412e-08
  56    9.6323464773186e-07
  57    1.2242367309431e-06
  58    1.9542548151213e-07
  59    -1.2508564746964e-06
  60    -1.6172749161718e-06
  61    -2.3951749603594e-08
  62    0.00042238594217029
  63    0.0004223853592106
  64    -2.3801490994901e-09
  65    0.00042238062036258
  66    -0.005855058044868
  67    0.0057234067514224
  68    -6.6650607669441e-08
  69    9.632374110815e-07
  70    1.2242396229991e-06
  71    1.9543517161769e-07
  72    -1.2508467604168e-06
  73    -1.6172650957788e-06
  74    2.395195848546e-08
  75    -0.00042238591242709
  76    -0.00042238532948247
  77    2.3801607669513e-09
  78    -0.00042238059080543
 Sym= A
 Ene=               5
 Spin= Alpha
 Occup=    1.00000
   1    -7.25261404725e-12
   2    1.4729091280141e-12
   3    -1.1438849948578e-12
   4     -0.30294732905514
   5     -0.27477071498465
   6      0.57753363312788
   7     0.003190081924671
   8    0.0028934182111432
   9    -0.0060810996251065
  10    1.0931953500288e-09
  11    2.7674824848573e-10
  12    3.0509678793144e-10
  13    -3.0846506623238e-11
  14    -5.8469268517272e-10
  15    1.7040066807551e-10
  16    -3.1556734028953e-12
  17    -3.5333079314079e-12
  18    -4.7876488221152e-12
  19    9.8235547782094e-12
  20    -0.0030189250642342
  21    -0.00063468890604851
  22    -0.00053344265871851
  23    -1.4032581273159e-05
  24    5.323799780671e-08
  25    0.0015113032862619
  26    -0.0014034487689626
  27    4.2975351834445e-12
  28    -1.0071031763576e-12
  29    9.1135396892253e-13
  30     -0.30299580493516
  31     -0.27483139707546
  32       0.5779975603104
  33    0.0031900348397842
  34    0.0028934710540456
  35    -0.0060857735134796
  36    -1.0928094401745e-09
  37    -2.7794166224794e-10
  38    -3.0656450960306e-10
  39    3.0704189735631e-11
  40    5.852937489503e-10
  41    -1.7026636231726e-10
  42    3.5125028243144e-12
  43    3.9997064721715e-12
  44    4.8055833150895e-12
  45    -1.0083326596156e-11
  46    -0.0030208092879203
  47    -0.00063457797033336
  48    -0.00053334674896216
  49    -1.3977677677285e-05
  50    -3.8772396537996e-08
  51    0.0015116545612864
  52    -0.0014038562068734
  53    -8.4620056717534e-07
  54    8.2609214875007e-07
  55    -0.0019273290692857
  56    -0.0017481250575708
  57     0.003675428510248
  58    0.0027144902535099
  59    0.0024620949291657
  60    -0.0051765555383593
  61    9.4299581846766e-07
  62    -1.1496174804134e-07
  63    -1.1314229544871e-07
  64    1.9671114178236e-08
  65    4.6109571924751e-08
  66    8.4620051153584e-07
  67    -8.2609223243853e-07
  68    -0.0019273292475278
  69    -0.0017481252191084
  70    0.0036754288546076
  71    0.0027144901602313
  72    0.0024620948445493
  73    -0.0051765553612461
  74    -9.4299609151979e-07
  75    1.1496166769818e-07
  76    1.1314220558577e-07
  77    -1.9671104917123e-08
  78    -4.6109455074973e-08
 Sym= A
 Ene=               6
 Spin= Alpha
 Occup=    1.00000
   1    1.2992771924237e-12
   2    -1.6390395355682e-13
   3    9.7122757691508e-15
   4     -0.49216233788134
   5      0.50828535378343
   6    -0.016315041320589
   7    0.0051824602888878
   8    -0.0053519078583117
   9    0.00017197702506346
  10    -3.0614229503162e-11
  11    -5.1738706531526e-10
  12    5.0075508398984e-10
  13    -1.0901038777488e-09
  14    1.6602388146686e-11
  15    -4.7982546211949e-12
  16    1.0087367952108e-11
  17    -9.9282740304901e-12
  18    -1.70158149313e-10
  19    -4.4790469748058e-13
  20    8.5209143513424e-05
  21    -0.0017815105782188
  22    0.0018140781649206
  23    -0.000497347691263
  24    4.9556484265835e-08
  25    0.0018740310866041
  26    0.0019556179884512
  27    2.9861679172941e-13
  28    5.2829034505132e-14
  29    -1.7619435831195e-13
  30     -0.49229634903688
  31      0.50870281908293
  32    -0.016212997061101
  33    0.0051831477594466
  34    -0.0053562104773095
  35    0.00017051941975809
  36    3.0770537982165e-11
  37    5.165871954635e-10
  38    -5.0034678130665e-10
  39    1.0910118030488e-09
  40    -1.6587728264562e-11
  41    4.7676024980946e-12
  42    -9.8040765039586e-12
  43    9.6565420413538e-12
  44    1.6977922864526e-10
  45    3.7189248543464e-13
  46    8.4808825852128e-05
  47    -0.0017819850830575
  48    0.0018151801673657
  49    -0.00049767016035762
  50    -5.0493307622611e-08
  51     0.001874370271829
  52    0.0019569029364069
  53    -9.1943676826662e-07
  54    8.9761040774515e-07
  55    -0.0031312922962164
  56    0.0032347580588411
  57    -0.00010346322364482
  58    0.0044101742144722
  59    -0.0045558965450645
  60    0.00014571985017678
  61    -7.2457925832539e-08
  62    2.4332026391276e-08
  63    -1.489377059112e-07
  64    -8.6800436248447e-07
  65    -7.3191523164513e-08
  66    9.1943689825414e-07
  67    -8.9761034418386e-07
  68    -0.0031312925879919
  69     0.003234758359982
  70    -0.00010346323342856
  71    0.0044101740633787
  72    -0.0045558963889405
  73    0.00014571984521403
  74    7.2457931361845e-08
  75    -2.4331934786653e-08
  76    1.4893761209545e-07
  77    8.6800462012033e-07
  78    7.3191520614562e-08
 Sym= A
 Ene=               7
 Spin= Alpha
 Occup=    1.00000
   1    -2.3602681276158e-09
   2    9.4449396747238e-11
   3    4.2640162238595e-10
   4      0.40858788249482
   5      0.40856675401985
   6      0.40856665281206
   7    -0.0033940333938672
   8    -0.0033938515348558
   9    -0.0033938512132603
  10    1.5552132089768e-12
  11    7.633701900253e-10
  12    7.6308202927759e-10
  13    1.7940406797129e-13
  14    7.605981938577e-10
  15    7.4237312172564e-13
  16    -3.2216634685036e-11
  17    -3.2097926947486e-11
  18    3.4115527629465e-14
  19    -3.0946523988228e-11
  20    -0.0017939898544398
  21    0.0010986582557008
  22    0.0010986064283924
  23    -5.4276726650851e-09
  24    -0.00042656351734689
  25    -0.0014183523794447
  26    0.0014182785330568
  27    2.3611495561973e-09
  28    -9.594176765839e-11
  29    -4.2370742261816e-10
  30      0.40887917088544
  31      0.40889930261097
  32      0.40890975579539
  33    -0.0033980006674107
  34    -0.0033981738428671
  35    -0.0033982643977459
  36    -5.4887728525526e-13
  37    -7.6320635166688e-10
  38    -7.6321172020284e-10
  39    6.7521307318728e-14
  40    -7.6166926443668e-10
  41    -1.052785309276e-12
  42    3.2272749118188e-11
  43    3.226263181391e-11
  44    -9.0448940059407e-14
  45    3.1554068636707e-11
  46    -0.0017953675188002
  47    0.0010993626097637
  48    0.0010994119612108
  49    5.3601088936101e-09
  50    -0.00042683168384378
  51    -0.0014192660203018
  52    0.0014193402314815
  53    -2.3163884740208e-06
  54    2.2467061162339e-06
  55    0.0017912868993552
  56    0.0017912853968967
  57     0.001791301564526
  58     -0.00224745820534
  59    -0.0022474552217509
  60    -0.0022474876549614
  61    5.6207107779712e-08
  62    -1.6282045260119e-07
  63    -1.7628911702806e-07
  64    -6.4489135079297e-08
  65    -1.5936151090619e-07
  66    2.3163872308483e-06
  67    -2.2467085447694e-06
  68    0.0017912870142001
  69    0.0017912855117203
  70    0.0017913016796147
  71    -0.0022474582451358
  72    -0.0022474552615468
  73    -0.0022474876948453
  74    -5.6207122472257e-08
  75    1.6282092033502e-07
  76    1.7628957410331e-07
  77    6.4489131276553e-08
  78    1.5936193602246e-07
 Sym= A
 Ene=               8
 Spin= Alpha
 Occup=    1.00000
   1     0.058490976415706
   2    -0.025399299640324
   3    -0.025756549632633
   4    2.0578921540754e-08
   5    2.0578789074716e-08
   6    2.057998472659e-08
   7    -9.8214885085679e-09
   8    -9.821250350468e-09
   9    -9.8243595821796e-09
  10    -5.3322296459009e-08
  11    0.0017801147297836
  12    0.0017801064273096
  13    2.2785460614042e-08
  14    0.0017801020954471
  15    -1.5680994856823e-08
  16    0.0012874595308463
  17    0.0012874516262493
  18    2.2490945159357e-08
  19    0.0012874548644803
  20    -2.4618234616652e-09
  21    1.506969857045e-09
  22    1.5069255871147e-09
  23    -4.6171773414651e-15
  24    -4.7147682991703e-11
  25    -1.945537053576e-09
  26    1.9454729666512e-09
  27     0.058490934282055
  28    -0.025399291901398
  29    -0.025756501568834
  30    -2.0566084877924e-08
  31    -2.0566120907513e-08
  32    -2.0566445321052e-08
  33    9.8822912070272e-09
  34    9.8821526508527e-09
  35    9.8846358835753e-09
  36    -9.1414286468087e-09
  37    0.0017800995399539
  38     0.001780105316756
  39    -2.8091120123436e-08
  40     0.001780083066566
  41    2.2660531348439e-08
  42    0.0012874576757519
  43    0.0012874647614192
  44    -2.1574838281371e-08
  45    0.0012874489758025
  46    2.4802676142916e-09
  47    -1.5183997021786e-09
  48    -1.5183678770183e-09
  49    -4.7163001311873e-15
  50    4.7393323592611e-11
  51    1.960216450802e-09
  52    -1.9601832325884e-09
  53      0.61701511409018
  54    -0.043924190566041
  55    2.0180825702969e-08
  56    5.0509309859538e-08
  57    5.7578687989524e-08
  58    -2.1749695631062e-09
  59    -1.4824598348733e-08
  60    -1.8123662116548e-08
  61    4.526350410929e-09
  62    -0.00052928161795008
  63    -0.00052928178220506
  64    4.0899288304861e-10
  65    -0.000529283418263
  66       0.6170158716286
  67    -0.043924230522211
  68    -2.0152809667112e-08
  69    -5.0479534855328e-08
  70    -5.7557616769498e-08
  71    2.4230392226536e-09
  72    1.5072400078931e-08
  73    1.8372903522028e-08
  74    4.5276372978992e-09
  75    -0.00052928217446943
  76    -0.00052928233875571
  77    4.0906589291971e-10
  78    -0.00052928397520379
 Sym= A
 Ene=               9
 Spin= Alpha
 Occup=    1.00000
   1    3.5113677772517e-08
   2    -1.4736832469394e-08
   3    -1.6546704614198e-08
   4    -0.036546448829534
   5     -0.03654645552904
   6    -0.036546458970105
   7     0.018324750371278
   8     0.018324770255579
   9     0.018324774063469
  10     1.54941219935e-11
  11     1.80000571786e-09
  12    1.800359466985e-09
  13    1.0037280914873e-12
  14    1.8050229890684e-09
  15    1.2663697959415e-12
  16    1.2053488380673e-09
  17    1.2053181308336e-09
  18    9.5322102162148e-14
  19    1.2055261776192e-09
  20    0.0045393850726472
  21    -0.0027797935617198
  22    -0.0027797963463212
  23    -2.3090451037133e-10
  24    0.00011066312076891
  25    0.0035886949545957
  26    -0.0035886998178478
  27    3.5187235058999e-08
  28    -1.4626614105245e-08
  29    -1.6726063258606e-08
  30     0.036546461000578
  31     0.036546453842547
  32      0.03654645396167
  33    -0.018324758365215
  34    -0.018324738625655
  35    -0.018324732473513
  36    1.5171383162559e-11
  37    1.8534425025095e-09
  38    1.8538310877665e-09
  39    9.2804647513668e-13
  40    1.8585636849863e-09
  41    1.0951042257668e-12
  42    1.2503591367766e-09
  43    1.2504843739946e-09
  44    4.5105799062188e-14
  45    1.251251853121e-09
  46    -0.0045393766608747
  47    0.0027797963683647
  48    0.0027797935391703
  49    -1.4930202450897e-10
  50    -0.00011066479526746
  51    -0.0035886985062751
  52    0.0035886947981991
  53      0.66381372691108
  54    -0.041478692251826
  55    1.3962694004354e-08
  56    4.551643999828e-08
  57    5.3033870831734e-08
  58    4.3080096301876e-09
  59    -2.3736838803162e-08
  60    -3.0966557265886e-08
  61    4.3609714595486e-09
  62    -0.00074324799401648
  63    -0.00074324800341825
  64    4.2293466414596e-10
  65    -0.00074324815133645
  66     -0.66381304239056
  67     0.041478631173249
  68    1.3964927763755e-08
  69    4.5516164208892e-08
  70    5.3045644585079e-08
  71    4.4048940282634e-09
  72    -2.3639696181657e-08
  73    -3.0870479187915e-08
  74    -4.3639222192934e-09
  75    0.00074324674380472
  76    0.00074324675334484
  77    -4.2311072635557e-10
  78    0.00074324690301824
 Sym= A
 Ene=              10
 Spin= Alpha
 Occup=    1.00000
   1    -0.070964621736875
   2     0.049418786693408
   3     0.026952354163161
   4    -2.5731430662795e-09
   5    -2.573352846332e-09
   6    -2.5692388368671e-09
   7    1.4591437362075e-09
   8    1.4587360141343e-09
   9    1.4619804622887e-09
  10    -5.851388951882e-07
  11     -0.18774144244802
  12     -0.18774216226606
  13    -2.872225648124e-08
  14     -0.18774147261552
  15    5.1012635352719e-08
  16    -0.0019339620682543
  17    -0.0019339374777248
  18    -3.583630156565e-08
  19    -0.0019339583780189
  20    8.4014671489453e-10
  21    -5.1534832528899e-10
  22    -5.1534469087437e-10
  23    -5.7340712287887e-14
  24    -8.1478639750866e-10
  25    6.6455234348234e-10
  26    -6.646413176981e-10
  27     0.070964536230243
  28     -0.04941882828672
  29    -0.026952214963406
  30    -2.5698470734361e-09
  31    -2.5703543497944e-09
  32    -2.564795382204e-09
  33    1.4830362946327e-09
  34    1.4832604299765e-09
  35    1.4834341835424e-09
  36    5.668048686502e-07
  37      0.18774034345584
  38      0.18773968130834