[Molden Format]
made by pyscf v[2.8.0]
[Atoms] (AU)
Ni   1   18     0.00000000000000     0.00000000000000     0.00000000000000
Ni   2   18     7.88015793943631     7.88015793943631     7.88015793943631
O   3   6     3.94007896971815     3.94007896971815     3.94007896971815
O   4   6    11.82023690915446    11.82023690915446    11.82023690915446
[GTO]
1 0
 s    5 1.00
       10.077427756816   -0.16816538591041
        5.847735848326   -0.31203986825241
        2.494032826008    0.76231213094128
        0.988354848429    0.55437604679043
        0.344978242158    0.03155701098717
 s    5 1.00
       10.077427756816   0.058000950062097
        5.847735848326    0.14653254811322
        2.494032826008   -0.50777581008225
        0.988354848429    -1.0938070247199
        0.344978242158    0.66529670756055
 s    5 1.00
       10.077427756816  0.0053460448296085
        5.847735848326   -0.08418457883001
        2.494032826008  0.0015718453997724
        0.988354848429   -0.87757432617674
        0.344978242158     1.5777647329419
 p    5 1.00
       10.077427756816   -0.12236774170237
        5.847735848326    0.23342048133724
        2.494032826008    0.52638460167342
        0.988354848429    0.39425731817561
        0.344978242158   0.051608556148131
 p    5 1.00
       10.077427756816  -0.012616972687739
        5.847735848326  -0.025194607896872
        2.494032826008   -0.22268415555677
        0.988354848429   -0.22497484726751
        0.344978242158     1.1712751328261
 d    5 1.00
       10.077427756816    0.08918252306285
        5.847735848326    0.25567343360121
        2.494032826008     0.3554995300545
        0.988354848429    0.34934981895974
        0.344978242158    0.26737625455372
 d    5 1.00
       10.077427756816  -0.093993451492197
        5.847735848326   -0.36074197756838
        2.494032826008    -0.5570889903816
        0.988354848429   -0.15334190860524
        0.344978242158    0.42481173879085
 f    5 1.00
       10.077427756816  -0.0083683152125103
        5.847735848326    0.03763133075813
        2.494032826008   0.027363949027932
        0.988354848429    0.87387054931809
        0.344978242158    0.16755768848104

2 0
 s    5 1.00
       10.077427756816   -0.16816538591041
        5.847735848326   -0.31203986825241
        2.494032826008    0.76231213094128
        0.988354848429    0.55437604679043
        0.344978242158    0.03155701098717
 s    5 1.00
       10.077427756816   0.058000950062097
        5.847735848326    0.14653254811322
        2.494032826008   -0.50777581008225
        0.988354848429    -1.0938070247199
        0.344978242158    0.66529670756055
 s    5 1.00
       10.077427756816  0.0053460448296085
        5.847735848326   -0.08418457883001
        2.494032826008  0.0015718453997724
        0.988354848429   -0.87757432617674
        0.344978242158     1.5777647329419
 p    5 1.00
       10.077427756816   -0.12236774170237
        5.847735848326    0.23342048133724
        2.494032826008    0.52638460167342
        0.988354848429    0.39425731817561
        0.344978242158   0.051608556148131
 p    5 1.00
       10.077427756816  -0.012616972687739
        5.847735848326  -0.025194607896872
        2.494032826008   -0.22268415555677
        0.988354848429   -0.22497484726751
        0.344978242158     1.1712751328261
 d    5 1.00
       10.077427756816    0.08918252306285
        5.847735848326    0.25567343360121
        2.494032826008     0.3554995300545
        0.988354848429    0.34934981895974
        0.344978242158    0.26737625455372
 d    5 1.00
       10.077427756816  -0.093993451492197
        5.847735848326   -0.36074197756838
        2.494032826008    -0.5570889903816
        0.988354848429   -0.15334190860524
        0.344978242158    0.42481173879085
 f    5 1.00
       10.077427756816  -0.0083683152125103
        5.847735848326    0.03763133075813
        2.494032826008   0.027363949027932
        0.988354848429    0.87387054931809
        0.344978242158    0.16755768848104

3 0
 s    5 1.00
       10.389228018317   0.096173629276308
        3.849621072005    0.10660531634684
        1.388401188741   -0.33089834130169
        0.496955043655    -0.6496800688702
         0.16249161504   -0.18463001807573
 s    5 1.00
       10.389228018317   0.073630541584408
        3.849621072005    0.12300997725073
        1.388401188741   -0.34343118342323
        0.496955043655   -0.10206354789477
         0.16249161504     1.1731714191581
 p    5 1.00
       10.389228018317  -0.057562550918086
        3.849621072005    -0.1784919811951
        1.388401188741   -0.35468525474322
        0.496955043655   -0.42655539522159
         0.16249161504    -0.2416879946641
 p    5 1.00
       10.389228018317  -0.021265755186923
        3.849621072005  -0.0049739296849897
        1.388401188741    -0.1779930881255
        0.496955043655    0.30108256988861
         0.16249161504    0.83447656856867
 d    5 1.00
       10.389228018317   0.018871300922529
        3.849621072005   0.038532527740515
        1.388401188741    0.46305094876991
        0.496955043655    0.56500599531169
         0.16249161504   0.096713771818926

4 0
 s    5 1.00
       10.389228018317   0.096173629276308
        3.849621072005    0.10660531634684
        1.388401188741   -0.33089834130169
        0.496955043655    -0.6496800688702
         0.16249161504   -0.18463001807573
 s    5 1.00
       10.389228018317   0.073630541584408
        3.849621072005    0.12300997725073
        1.388401188741   -0.34343118342323
        0.496955043655   -0.10206354789477
         0.16249161504     1.1731714191581
 p    5 1.00
       10.389228018317  -0.057562550918086
        3.849621072005    -0.1784919811951
        1.388401188741   -0.35468525474322
        0.496955043655   -0.42655539522159
         0.16249161504    -0.2416879946641
 p    5 1.00
       10.389228018317  -0.021265755186923
        3.849621072005  -0.0049739296849897
        1.388401188741    -0.1779930881255
        0.496955043655    0.30108256988861
         0.16249161504    0.83447656856867
 d    5 1.00
       10.389228018317   0.018871300922529
        3.849621072005   0.038532527740515
        1.388401188741    0.46305094876991
        0.496955043655    0.56500599531169
         0.16249161504   0.096713771818926

[5d]
[7f]
[9g]
[core]
1 : 10
2 : 10
3 : 2
4 : 2

[MO]
 Sym= A
 Ene=               0
 Spin= Alpha
 Occup=    1.00000
   1    -1.3206482810773e-08
   2    1.8752684025518e-08
   3    1.0410305498001e-08
   4    -7.2641038185076e-10
   5    9.9899154507072e-10
   6    -2.6774578929577e-10
   7    5.3642236591936e-09
   8    -7.3283309521196e-09
   9    1.9622353077544e-09
  10      0.16325617446882
  11    -0.086921602554586
  12     0.063645867182601
  13      0.60977341212512
  14      0.02327646556502
  15    0.0068977678348997
  16      -0.0122653323873
  17    0.0089811162988991
  18     0.025763389223752
  19    0.0032841621449515
  20    5.5890944388617e-10
  21    -4.7223454820564e-10
  22    1.1079391175677e-09
  23    7.9974255310399e-10
  24    -2.9277608247532e-14
  25    1.5645689544794e-09
  26    1.7803362062137e-09
  27    1.2558322318863e-08
  28    -1.8229492421124e-08
  29    -1.3383217397198e-08
  30    -7.2687866397459e-10
  31    9.9312322389532e-10
  32    -2.6971397671242e-10
  33    5.3570560332887e-09
  34    -7.3153897132331e-09
  35    1.9604493039582e-09
  36     -0.16325638335392
  37     0.086921629071392
  38    -0.063645883424221
  39     -0.60977333478113
  40    -0.023276471624929
  41    -0.0068977114840906
  42     0.012265343222402
  43    -0.0089811467325454
  44    -0.025763497400411
  45    -0.0032841430594799
  46    5.5929695056093e-10
  47    -4.7345538807478e-10
  48    1.1081596747611e-09
  49    7.9816919846081e-10
  50    -2.1699274526279e-14
  51    1.5641496144116e-09
  52    1.7799210874012e-09
  53    -1.3751846844656e-09
  54    -1.1309141679854e-09
  55       0.2885185200593
  56     -0.39402381751977
  57      0.10550512198718
  58    -0.070325956397558
  59     0.096042671214152
  60    -0.025716664697138
  61    2.3647586991671e-08
  62    -1.3231892069107e-09
  63    1.3658062895738e-08
  64    -2.0180643605489e-08
  65    -1.2351254337612e-08
  66    -1.3246608510781e-09
  67    -1.1340818992947e-09
  68     -0.28851860213103
  69      0.39402392953611
  70      -0.1055051519265
  71     0.070325934465928
  72     -0.09604264125008
  73     0.025716656667003
  74    2.3647585401216e-08
  75    -1.3236186208716e-09
  76    1.3658245625615e-08
  77    -2.0180943402459e-08
  78    -1.2351141258917e-08
