[Molden Format]
made by pyscf v[2.8.0]
[Atoms] (AU)
Ni   1   18     0.00000000000000     0.00000000000000     0.00000000000000
Ni   2   18     7.88015793943631     7.88015793943631     7.88015793943631
O   3   6     3.94007896971815     3.94007896971815     3.94007896971815
O   4   6    11.82023690915446    11.82023690915446    11.82023690915446
[GTO]
1 0
 s    5 1.00
       10.077427756816   -0.16816538591041
        5.847735848326   -0.31203986825241
        2.494032826008    0.76231213094128
        0.988354848429    0.55437604679043
        0.344978242158    0.03155701098717
 s    5 1.00
       10.077427756816   0.058000950062097
        5.847735848326    0.14653254811322
        2.494032826008   -0.50777581008225
        0.988354848429    -1.0938070247199
        0.344978242158    0.66529670756055
 s    5 1.00
       10.077427756816  0.0053460448296085
        5.847735848326   -0.08418457883001
        2.494032826008  0.0015718453997724
        0.988354848429   -0.87757432617674
        0.344978242158     1.5777647329419
 p    5 1.00
       10.077427756816   -0.12236774170237
        5.847735848326    0.23342048133724
        2.494032826008    0.52638460167342
        0.988354848429    0.39425731817561
        0.344978242158   0.051608556148131
 p    5 1.00
       10.077427756816  -0.012616972687739
        5.847735848326  -0.025194607896872
        2.494032826008   -0.22268415555677
        0.988354848429   -0.22497484726751
        0.344978242158     1.1712751328261
 d    5 1.00
       10.077427756816    0.08918252306285
        5.847735848326    0.25567343360121
        2.494032826008     0.3554995300545
        0.988354848429    0.34934981895974
        0.344978242158    0.26737625455372
 d    5 1.00
       10.077427756816  -0.093993451492197
        5.847735848326   -0.36074197756838
        2.494032826008    -0.5570889903816
        0.988354848429   -0.15334190860524
        0.344978242158    0.42481173879085
 f    5 1.00
       10.077427756816  -0.0083683152125103
        5.847735848326    0.03763133075813
        2.494032826008   0.027363949027932
        0.988354848429    0.87387054931809
        0.344978242158    0.16755768848104

2 0
 s    5 1.00
       10.077427756816   -0.16816538591041
        5.847735848326   -0.31203986825241
        2.494032826008    0.76231213094128
        0.988354848429    0.55437604679043
        0.344978242158    0.03155701098717
 s    5 1.00
       10.077427756816   0.058000950062097
        5.847735848326    0.14653254811322
        2.494032826008   -0.50777581008225
        0.988354848429    -1.0938070247199
        0.344978242158    0.66529670756055
 s    5 1.00
       10.077427756816  0.0053460448296085
        5.847735848326   -0.08418457883001
        2.494032826008  0.0015718453997724
        0.988354848429   -0.87757432617674
        0.344978242158     1.5777647329419
 p    5 1.00
       10.077427756816   -0.12236774170237
        5.847735848326    0.23342048133724
        2.494032826008    0.52638460167342
        0.988354848429    0.39425731817561
        0.344978242158   0.051608556148131
 p    5 1.00
       10.077427756816  -0.012616972687739
        5.847735848326  -0.025194607896872
        2.494032826008   -0.22268415555677
        0.988354848429   -0.22497484726751
        0.344978242158     1.1712751328261
 d    5 1.00
       10.077427756816    0.08918252306285
        5.847735848326    0.25567343360121
        2.494032826008     0.3554995300545
        0.988354848429    0.34934981895974
        0.344978242158    0.26737625455372
 d    5 1.00
       10.077427756816  -0.093993451492197
        5.847735848326   -0.36074197756838
        2.494032826008    -0.5570889903816
        0.988354848429   -0.15334190860524
        0.344978242158    0.42481173879085
 f    5 1.00
       10.077427756816  -0.0083683152125103
        5.847735848326    0.03763133075813
        2.494032826008   0.027363949027932
        0.988354848429    0.87387054931809
        0.344978242158    0.16755768848104

3 0
 s    5 1.00
       10.389228018317   0.096173629276308
        3.849621072005    0.10660531634684
        1.388401188741   -0.33089834130169
        0.496955043655    -0.6496800688702
         0.16249161504   -0.18463001807573
 s    5 1.00
       10.389228018317   0.073630541584408
        3.849621072005    0.12300997725073
        1.388401188741   -0.34343118342323
        0.496955043655   -0.10206354789477
         0.16249161504     1.1731714191581
 p    5 1.00
       10.389228018317  -0.057562550918086
        3.849621072005    -0.1784919811951
        1.388401188741   -0.35468525474322
        0.496955043655   -0.42655539522159
         0.16249161504    -0.2416879946641
 p    5 1.00
       10.389228018317  -0.021265755186923
        3.849621072005  -0.0049739296849897
        1.388401188741    -0.1779930881255
        0.496955043655    0.30108256988861
         0.16249161504    0.83447656856867
 d    5 1.00
       10.389228018317   0.018871300922529
        3.849621072005   0.038532527740515
        1.388401188741    0.46305094876991
        0.496955043655    0.56500599531169
         0.16249161504   0.096713771818926

4 0
 s    5 1.00
       10.389228018317   0.096173629276308
        3.849621072005    0.10660531634684
        1.388401188741   -0.33089834130169
        0.496955043655    -0.6496800688702
         0.16249161504   -0.18463001807573
 s    5 1.00
       10.389228018317   0.073630541584408
        3.849621072005    0.12300997725073
        1.388401188741   -0.34343118342323
        0.496955043655   -0.10206354789477
         0.16249161504     1.1731714191581
 p    5 1.00
       10.389228018317  -0.057562550918086
        3.849621072005    -0.1784919811951
        1.388401188741   -0.35468525474322
        0.496955043655   -0.42655539522159
         0.16249161504    -0.2416879946641
 p    5 1.00
       10.389228018317  -0.021265755186923
        3.849621072005  -0.0049739296849897
        1.388401188741    -0.1779930881255
        0.496955043655    0.30108256988861
         0.16249161504    0.83447656856867
 d    5 1.00
       10.389228018317   0.018871300922529
        3.849621072005   0.038532527740515
        1.388401188741    0.46305094876991
        0.496955043655    0.56500599531169
         0.16249161504   0.096713771818926

[5d]
[7f]
[9g]
[core]
1 : 10
2 : 10
3 : 2
4 : 2

[MO]
 Sym= A
 Ene=               0
 Spin= Alpha
 Occup=    1.00000
   1    -9.6707767966047e-08
   2    1.4816398306127e-07
   3    -5.0635067691896e-09
   4    -3.0354221859375e-10
   5    5.2740271350568e-09
   6    -4.9709361384819e-09
   7    8.3484577420431e-10
   8    -1.2359553993088e-08
   9    1.152455136516e-08
  10      0.61221810189754
  11     0.056732629305328
  12    -0.0039638718107937
  13      0.40645723776386
  14    -0.052790152473048
  15      0.04737947323194
  16     -0.01101792448669
  17    0.00076820761896182
  18     0.031455658627129
  19     0.010249417558082
  20    2.9986982180027e-09
  21    2.035737512222e-09
  22    2.9258477669722e-09
  23    1.5127666533139e-09
  24    -6.3974677925161e-14
  25    1.8343210575909e-09
  26    1.783721284428e-09
  27    1.1238449863973e-08
  28    -5.7077190296294e-08
  29    -3.1920442605111e-08
  30    4.3611789100886e-10
  31    -5.335725183996e-09
  32    4.899641080384e-09
  33    -8.8998131268713e-10
  34    1.239269237533e-08
  35    -1.1502258111044e-08
  36      0.61221786317031
  37     0.056730193678968
  38    -0.0039661116916328
  39      0.40645716156945
  40    -0.052791471386359
  41     0.047379503988489
  42    -0.011017934593955
  43    0.00076822240110338
  44      0.03145570554005
  45     0.010249383752725
  46    -2.9786250712239e-09
  47    -2.0105822600876e-09
  48    -2.9348407393647e-09
  49    -1.5170613478676e-09
  50    7.5206716357214e-14
  51    -1.8662350024718e-09
  52    -1.8027846876541e-09
  53    3.2646677452306e-07
  54    1.9731367821939e-07
  55    -3.588447095817e-07
  56    -1.5872984754145e-07
  57    -6.2013400187201e-07
  58    5.5791817465518e-08
  59    3.2676666142648e-08
  60    9.0238885513293e-08
  61     0.017217392941269
  62    0.0037013884606996
  63    -0.00025798314378955
  64      0.01143078689307
  65    -0.0034430415916468
  66    3.2646680863777e-07
  67    1.973136867781e-07
  68    3.5725303418109e-07
  69     1.59487741795e-07
  70    6.2097379818909e-07
  71    -5.5424502881296e-08
  72    -3.282601907938e-08
  73    -9.0457897270577e-08
  74     0.017217405436885
  75    0.0037013878428312
  76    -0.00025798310038879
  77     0.011430795188391
  78    -0.0034430410170939
